  Extended Huckel Theory orbitals
GAUSSIAN             36 MOL ORBITALS    108 PRIMITIVES       12 NUCLEI
   C   1    (CENTRE  1)   2.28961117  1.32190127  0.00000000  CHARGE =  6.0
   C   2    (CENTRE  2)   2.28961117 -1.32190127  0.00000000  CHARGE =  6.0
   C   3    (CENTRE  3)   0.00000000 -2.64380255  0.00000000  CHARGE =  6.0
   C   4    (CENTRE  4)  -2.28961117 -1.32190127  0.00000000  CHARGE =  6.0
   C   5    (CENTRE  5)  -2.28961117  1.32190127  0.00000000  CHARGE =  6.0
   C   6    (CENTRE  6)   0.00000000  2.64380255  0.00000000  CHARGE =  6.0
   H   7    (CENTRE  7)   4.06090823  2.34456440  0.00000000  CHARGE =  1.0
   H   8    (CENTRE  8)   4.06090823 -2.34456440  0.00000000  CHARGE =  1.0
   H   9    (CENTRE  9)   0.00000000 -4.68912881  0.00000000  CHARGE =  1.0
   H  10    (CENTRE 10)  -4.06090823 -2.34456440  0.00000000  CHARGE =  1.0
   H  11    (CENTRE 11)  -4.06090823  2.34456440  0.00000000  CHARGE =  1.0
   H  12    (CENTRE 12)   0.00000000  4.68912881  0.00000000  CHARGE =  1.0
CENTRE ASSIGNMENTS    1  1  1  1  1  1  1  1  1  1  1  1  1  1  1  2  2  2  2  2
CENTRE ASSIGNMENTS    2  2  2  2  2  2  2  2  2  2  3  3  3  3  3  3  3  3  3  3
CENTRE ASSIGNMENTS    3  3  3  3  3  4  4  4  4  4  4  4  4  4  4  4  4  4  4  4
CENTRE ASSIGNMENTS    5  5  5  5  5  5  5  5  5  5  5  5  5  5  5  6  6  6  6  6
CENTRE ASSIGNMENTS    6  6  6  6  6  6  6  6  6  6  7  7  7  8  8  8  9  9  9 10
CENTRE ASSIGNMENTS   10 10 11 11 11 12 12 12
TYPE ASSIGNMENTS      1  1  1  1  1  1  2  3  4  2  3  4  2  3  4  1  1  1  1  1
TYPE ASSIGNMENTS      1  2  3  4  2  3  4  2  3  4  1  1  1  1  1  1  2  3  4  2
TYPE ASSIGNMENTS      3  4  2  3  4  1  1  1  1  1  1  2  3  4  2  3  4  2  3  4
TYPE ASSIGNMENTS      1  1  1  1  1  1  2  3  4  2  3  4  2  3  4  1  1  1  1  1
TYPE ASSIGNMENTS      1  2  3  4  2  3  4  2  3  4  1  1  1  1  1  1  1  1  1  1
TYPE ASSIGNMENTS      1  1  1  1  1  1  1  1
EXPONENTS  0.7161684D+02 0.1304510D+02 0.3530512D+01 0.2941249D+01 0.6834830D+00
EXPONENTS  0.2222900D+00 0.2941249D+01 0.2941249D+01 0.2941249D+01 0.6834830D+00
EXPONENTS  0.6834830D+00 0.6834830D+00 0.2222900D+00 0.2222900D+00 0.2222900D+00
EXPONENTS  0.7161684D+02 0.1304510D+02 0.3530512D+01 0.2941249D+01 0.6834830D+00
EXPONENTS  0.2222900D+00 0.2941249D+01 0.2941249D+01 0.2941249D+01 0.6834830D+00
EXPONENTS  0.6834830D+00 0.6834830D+00 0.2222900D+00 0.2222900D+00 0.2222900D+00
EXPONENTS  0.7161684D+02 0.1304510D+02 0.3530512D+01 0.2941249D+01 0.6834830D+00
EXPONENTS  0.2222900D+00 0.2941249D+01 0.2941249D+01 0.2941249D+01 0.6834830D+00
EXPONENTS  0.6834830D+00 0.6834830D+00 0.2222900D+00 0.2222900D+00 0.2222900D+00
EXPONENTS  0.7161684D+02 0.1304510D+02 0.3530512D+01 0.2941249D+01 0.6834830D+00
EXPONENTS  0.2222900D+00 0.2941249D+01 0.2941249D+01 0.2941249D+01 0.6834830D+00
EXPONENTS  0.6834830D+00 0.6834830D+00 0.2222900D+00 0.2222900D+00 0.2222900D+00
EXPONENTS  0.7161684D+02 0.1304510D+02 0.3530512D+01 0.2941249D+01 0.6834830D+00
EXPONENTS  0.2222900D+00 0.2941249D+01 0.2941249D+01 0.2941249D+01 0.6834830D+00
EXPONENTS  0.6834830D+00 0.6834830D+00 0.2222900D+00 0.2222900D+00 0.2222900D+00
EXPONENTS  0.7161684D+02 0.1304510D+02 0.3530512D+01 0.2941249D+01 0.6834830D+00
EXPONENTS  0.2222900D+00 0.2941249D+01 0.2941249D+01 0.2941249D+01 0.6834830D+00
EXPONENTS  0.6834830D+00 0.6834830D+00 0.2222900D+00 0.2222900D+00 0.2222900D+00
EXPONENTS  0.3425251D+01 0.6239140D+00 0.1688550D+00 0.3425251D+01 0.6239140D+00
EXPONENTS  0.1688550D+00 0.3425251D+01 0.6239140D+00 0.1688550D+00 0.3425251D+01
EXPONENTS  0.6239140D+00 0.1688550D+00 0.3425251D+01 0.6239140D+00 0.1688550D+00
EXPONENTS  0.3425251D+01 0.6239140D+00 0.1688550D+00
MO    1     MO 0.0        OCC NO =    2.0000000  ORB. ENERGY =  -10.945199
  0.24193019D+03  0.65239538D+02  0.76292114D+01 -0.36103735D-01  0.16162906D-01
  0.52534746D-02  0.80589581D-01  0.46529537D-01  0.89756386D-15  0.81762646D-02
  0.47206823D-02  0.91062883D-16  0.31812376D-03  0.18367326D-03  0.35430931D-17
  0.24193019D+03  0.65239538D+02  0.76292114D+01 -0.36103735D-01  0.16162906D-01
  0.52534746D-02  0.80589581D-01 -0.46529537D-01  0.26155123D-14  0.81762646D-02
 -0.47206823D-02  0.26535838D-15  0.31812376D-03 -0.18367326D-03  0.10324618D-16
  0.24192930D+03  0.65239297D+02  0.76291833D+01 -0.36103358D-01  0.16162738D-01
  0.52534198D-02 -0.79554771D-14 -0.93055469D-01 -0.32312385D-14 -0.80712773D-15
 -0.94409988D-02 -0.32782726D-15 -0.31403889D-16 -0.36733229D-03 -0.12755169D-16
  0.24193019D+03  0.65239538D+02  0.76292114D+01 -0.36103735D-01  0.16162906D-01
  0.52534746D-02 -0.80589581D-01 -0.46529537D-01  0.24174360D-15 -0.81762646D-02
 -0.47206823D-02  0.24526243D-16 -0.31812376D-03 -0.18367326D-03  0.95427202D-18
  0.24193019D+03  0.65239538D+02  0.76292114D+01 -0.36103735D-01  0.16162906D-01
  0.52534746D-02 -0.80589581D-01  0.46529537D-01  0.13516412D-14 -0.81762646D-02
  0.47206823D-02  0.13713157D-15 -0.31812376D-03  0.18367326D-03  0.53355429D-17
  0.24192930D+03  0.65239297D+02  0.76291833D+01 -0.36103358D-01  0.16162738D-01
  0.52534198D-02 -0.13744160D-13  0.93055469D-01 -0.13191585D-14 -0.13944220D-14
  0.94409988D-02 -0.13383602D-15 -0.54254455D-16  0.36733229D-03 -0.52073190D-17
 -0.38790567D-01 -0.10460369D-01 -0.12232470D-02 -0.38790567D-01 -0.10460369D-01
 -0.12232470D-02 -0.38789864D-01 -0.10460180D-01 -0.12232248D-02 -0.38790567D-01
 -0.10460369D-01 -0.12232470D-02 -0.38790567D-01 -0.10460369D-01 -0.12232470D-02
 -0.38789864D-01 -0.10460180D-01 -0.12232248D-02
MO    2     MO 0.0        OCC NO =    2.0000000  ORB. ENERGY =  -10.929960
 -0.29594032D+03 -0.79804052D+02 -0.93324079D+01  0.69440717D-01 -0.31087194D-01
 -0.10104357D-01  0.36618109D-01 -0.18093547D+00 -0.14855579D-15  0.37151123D-02
 -0.18356917D-01 -0.15071817D-16  0.14454834D-03 -0.71423465D-03 -0.58641732D-18
 -0.29594032D+03 -0.79804052D+02 -0.93324079D+01  0.69440717D-01 -0.31087194D-01
 -0.10104357D-01  0.36618109D-01  0.18093547D+00 -0.62984793D-15  0.37151123D-02
  0.18356917D-01 -0.63901602D-16  0.14454834D-03  0.71423465D-03 -0.24862965D-17
  0.13146969D-10  0.35452465D-11  0.41458655D-12 -0.14838004D-14  0.66426720D-15
  0.21590862D-15  0.35000659D+00 -0.11034947D-13 -0.16941750D-14  0.35510130D-01
 -0.11195573D-14 -0.17188355D-15  0.13816353D-02 -0.43559960D-16 -0.66876798D-17
  0.29594032D+03  0.79804052D+02  0.93324079D+01 -0.69440717D-01  0.31087194D-01
  0.10104357D-01  0.36618109D-01 -0.18093547D+00 -0.17393500D-14  0.37151123D-02
 -0.18356917D-01 -0.17646680D-15  0.14454834D-03 -0.71423465D-03 -0.68660060D-17
  0.29594032D+03  0.79804052D+02  0.93324079D+01 -0.69440717D-01  0.31087194D-01
  0.10104357D-01  0.36618109D-01  0.18093547D+00  0.25262993D-14  0.37151123D-02
  0.18356917D-01  0.25630722D-15  0.14454834D-03  0.71423465D-03  0.99724533D-17
  0.19632501D-11  0.52941524D-12  0.61910629D-13 -0.14081780D-15  0.63041259D-16
  0.20490476D-16  0.35000659D+00 -0.22681597D-14 -0.36467238D-14  0.35510130D-01
 -0.23011751D-15 -0.36998057D-15  0.13816353D-02 -0.89534587D-17 -0.14395279D-16
  0.42832508D-01  0.11550330D-01  0.13507082D-02  0.42832508D-01  0.11550330D-01
  0.13507082D-02 -0.27896474D-14 -0.75226385D-15 -0.87970559D-16 -0.42832508D-01
 -0.11550330D-01 -0.13507082D-02 -0.42832508D-01 -0.11550330D-01 -0.13507082D-02
 -0.64095782D-23 -0.17284242D-23 -0.20212382D-24
MO    3     MO 0.0        OCC NO =    2.0000000  ORB. ENERGY =  -10.929959
  0.17086102D+03  0.46074835D+02  0.53880617D+01 -0.40091969D-01  0.17948358D-01
  0.58338048D-02  0.18093507D+00 -0.24554563D+00 -0.48153698D-15  0.18356877D-01
 -0.24911980D-01 -0.48854625D-16  0.71423309D-03 -0.96928037D-03 -0.19008456D-17
 -0.17086102D+03 -0.46074835D+02 -0.53880617D+01  0.40091969D-01 -0.17948358D-01
 -0.58338048D-02 -0.18093507D+00 -0.24554563D+00 -0.75015750D-15 -0.18356877D-01
 -0.24911980D-01 -0.76107682D-16 -0.71423309D-03 -0.96928037D-03 -0.29612131D-17
 -0.34172265D+03 -0.92149837D+02 -0.10776143D+02  0.80183036D-01 -0.35896311D-01
 -0.11667478D-01  0.14331002D-13  0.67843986D-01  0.77845451D-14  0.14539604D-14
  0.68831525D-02  0.78978572D-15  0.56570987D-16  0.26781109D-03  0.30729143D-16
 -0.17086102D+03 -0.46074835D+02 -0.53880617D+01  0.40091969D-01 -0.17948358D-01
 -0.58338048D-02  0.18093507D+00 -0.24554563D+00 -0.80892299D-15  0.18356877D-01
 -0.24911980D-01 -0.82069770D-16  0.71423309D-03 -0.96928037D-03 -0.31931872D-17
  0.17086102D+03  0.46074835D+02  0.53880617D+01 -0.40091969D-01  0.17948358D-01
  0.58338048D-02 -0.18093507D+00 -0.24554563D+00 -0.17836954D-14 -0.18356877D-01
 -0.24911980D-01 -0.18096590D-15 -0.71423309D-03 -0.96928037D-03 -0.70410578D-17
  0.34172265D+03  0.92149837D+02  0.10776143D+02 -0.80183036D-01  0.35896311D-01
  0.11667478D-01  0.92824768D-14  0.67843986D-01  0.75761296D-15  0.94175929D-15
  0.68831525D-02  0.76864080D-16  0.36642161D-16  0.26781109D-03  0.29906432D-17
 -0.24729190D-01 -0.66685402D-02 -0.77982640D-03  0.24729190D-01  0.66685402D-02
  0.77982640D-03  0.49458009D-01  0.13336980D-01  0.15596411D-02  0.24729190D-01
  0.66685402D-02  0.77982640D-03 -0.24729190D-01 -0.66685402D-02 -0.77982640D-03
 -0.49458009D-01 -0.13336980D-01 -0.15596411D-02
MO    4     MO 0.0        OCC NO =    2.0000000  ORB. ENERGY =  -10.899586
 -0.17069223D+03 -0.46029320D+02 -0.53827391D+01  0.52869041D-01 -0.23668392D-01
 -0.76930036D-02  0.15868004D+00 -0.14084520D+00 -0.78131022D-15  0.16098979D-01
 -0.14289535D-01 -0.79268300D-16  0.62638235D-03 -0.55598013D-03 -0.30841871D-17
 -0.17069223D+03 -0.46029320D+02 -0.53827391D+01  0.52869041D-01 -0.23668392D-01
 -0.76930036D-02  0.15868004D+00  0.14084520D+00 -0.99638406D-15  0.16098979D-01
  0.14289535D-01 -0.10108875D-15  0.62638235D-03  0.55598013D-03 -0.39331814D-17
  0.34138573D+03  0.92058982D+02  0.10765518D+02 -0.10573819D+00  0.47336832D-01
  0.15386023D-01 -0.11579003D-14  0.13399561D+00  0.35950359D-14 -0.11747548D-15
  0.13594606D-01  0.36473654D-15 -0.45707596D-17  0.52894168D-03  0.14191243D-16
 -0.17069223D+03 -0.46029320D+02 -0.53827391D+01  0.52869041D-01 -0.23668392D-01
 -0.76930036D-02 -0.15868004D+00  0.14084520D+00  0.21195528D-14 -0.16098979D-01
  0.14289535D-01  0.21504051D-15 -0.62638235D-03  0.55598013D-03  0.83668397D-17
 -0.17069223D+03 -0.46029320D+02 -0.53827391D+01  0.52869041D-01 -0.23668392D-01
 -0.76930036D-02 -0.15868004D+00 -0.14084520D+00  0.32858500D-14 -0.16098979D-01
 -0.14289535D-01  0.33336790D-15 -0.62638235D-03 -0.55598013D-03  0.12970746D-16
  0.34138573D+03  0.92058982D+02  0.10765518D+02 -0.10573819D+00  0.47336832D-01
  0.15386023D-01  0.60277433D-14 -0.13399561D+00  0.14740317D-14  0.61154833D-15
 -0.13594606D-01  0.14954877D-15  0.23794246D-16 -0.52894168D-03  0.58186739D-17
  0.15781223D-01  0.42556073D-02  0.49765538D-03  0.15781223D-01  0.42556073D-02
  0.49765538D-03 -0.31562291D-01 -0.85111728D-02 -0.99530587D-03  0.15781223D-01
  0.42556073D-02  0.49765538D-03  0.15781223D-01  0.42556073D-02  0.49765538D-03
 -0.31562291D-01 -0.85111728D-02 -0.99530587D-03
MO    5     MO 0.0        OCC NO =    2.0000000  ORB. ENERGY =  -10.899585
  0.29564834D+03  0.79725315D+02  0.93232003D+01 -0.91572777D-01  0.40995266D-01
  0.13324806D-01 -0.42382677D-01 -0.15868478D+00  0.83901064D-15 -0.42999601D-02
 -0.16099460D-01  0.85122330D-16 -0.16730372D-03 -0.62640107D-03  0.33119569D-17
 -0.29564834D+03 -0.79725315D+02 -0.93232003D+01  0.91572777D-01 -0.40995266D-01
 -0.13324806D-01  0.42382677D-01 -0.15868478D+00 -0.35418704D-15  0.42999601D-02
 -0.16099460D-01 -0.35934260D-16  0.16730372D-03 -0.62640107D-03 -0.13981375D-17
  0.12008036D-10  0.32381189D-11  0.37867058D-12 -0.45242582D-14  0.20254182D-14
  0.65832732D-15  0.23245885D+00  0.10146278D-13 -0.91341128D-16  0.23584252D-01
  0.10293968D-14 -0.92670693D-17  0.91762087D-03  0.40051978D-16 -0.36056501D-18
  0.29564834D+03  0.79725315D+02  0.93232003D+01 -0.91572777D-01  0.40995266D-01
  0.13324806D-01  0.42382677D-01  0.15868478D+00 -0.40134118D-14  0.42999601D-02
  0.16099460D-01 -0.40718312D-15  0.16730372D-03  0.62640107D-03 -0.15842763D-16
 -0.29564834D+03 -0.79725315D+02 -0.93232003D+01  0.91572777D-01 -0.40995266D-01
 -0.13324806D-01 -0.42382677D-01  0.15868478D+00  0.67868421D-15 -0.42999601D-02
  0.16099460D-01  0.68856316D-16 -0.16730372D-03  0.62640107D-03  0.26790755D-17
 -0.11753169D-11 -0.31693907D-12 -0.37063340D-13 -0.68916983D-17  0.30852729D-17
  0.10028149D-17 -0.23245885D+00  0.10283863D-14  0.36605032D-14 -0.23584252D-01
  0.10433556D-15  0.37137856D-15 -0.91762087D-03  0.40595090D-17  0.14449672D-16
 -0.27333778D-01 -0.73709005D-02 -0.86196117D-03  0.27333778D-01  0.73709005D-02
  0.86196117D-03 -0.95972455D-15 -0.25880192D-15 -0.30264579D-16 -0.27333778D-01
 -0.73709005D-02 -0.86196117D-03  0.27333778D-01  0.73709005D-02  0.86196117D-03
  0.38977477D-23  0.10510772D-23  0.12291412D-24
MO    6     MO 0.0        OCC NO =    2.0000000  ORB. ENERGY =  -10.886128
  0.24132322D+03  0.65075859D+02  0.76100705D+01 -0.83142341D-01  0.37221132D-01
  0.12098088D-01 -0.16877281D+00 -0.97445408D-01  0.20981926D-15 -0.17122947D-01
 -0.98863826D-02  0.21287340D-16 -0.66622310D-03 -0.38466138D-03  0.82825214D-18
 -0.24132322D+03 -0.65075859D+02 -0.76100705D+01  0.83142341D-01 -0.37221132D-01
 -0.12098088D-01  0.16877281D+00 -0.97445408D-01 -0.89001367D-15  0.17122947D-01
 -0.98863826D-02 -0.90296874D-16  0.66622310D-03 -0.38466138D-03 -0.35132891D-17
  0.24132280D+03  0.65075746D+02  0.76100574D+01 -0.83141563D-01  0.37220783D-01
  0.12097975D-01  0.48300852D-14  0.19488181D+00  0.34820625D-14  0.49003921D-15
  0.19771851D-01  0.35327475D-15  0.19066545D-16  0.76928720D-03  0.13745286D-16
 -0.24132322D+03 -0.65075859D+02 -0.76100705D+01  0.83142341D-01 -0.37221132D-01
 -0.12098088D-01 -0.16877281D+00 -0.97445408D-01  0.30402519D-15 -0.17122947D-01
 -0.98863826D-02  0.30845059D-16 -0.66622310D-03 -0.38466138D-03  0.12001258D-17
  0.24132322D+03  0.65075859D+02  0.76100705D+01 -0.83142341D-01  0.37221132D-01
  0.12098088D-01  0.16877281D+00 -0.97445408D-01  0.57621528D-14  0.17122947D-01
 -0.98863826D-02  0.58460269D-15  0.66622310D-03 -0.38466138D-03  0.22745840D-16
 -0.24132280D+03 -0.65075746D+02 -0.76100574D+01  0.83141563D-01 -0.37220783D-01
 -0.12097975D-01  0.20071467D-13  0.19488181D+00  0.11709336D-14  0.20363628D-14
  0.19771851D-01  0.11879778D-15  0.79231215D-16  0.76928720D-03  0.46222080D-17
 -0.14609494D-01 -0.39396355D-02 -0.46070529D-03  0.14609494D-01  0.39396355D-02
  0.46070529D-03 -0.14609449D-01 -0.39396235D-02 -0.46070389D-03  0.14609494D-01
  0.39396355D-02  0.46070529D-03 -0.14609494D-01 -0.39396355D-02 -0.46070529D-03
  0.14609449D-01  0.39396235D-02  0.46070389D-03
MO    7     MO 0.0        OCC NO =    2.0000000  ORB. ENERGY =   -0.806611
  0.77712145D+02  0.20956063D+02  0.24506341D+01  0.14230637D+01 -0.63707664D+00
 -0.20707080D+00  0.23061768D+01 -0.15270847D+01 -0.15132372D-14  0.23397456D+00
 -0.15493130D+00 -0.15352640D-15  0.91035297D-02 -0.60280985D-02 -0.59734361D-17
  0.77712145D+02  0.20956063D+02  0.24506341D+01  0.14230637D+01 -0.63707664D+00
 -0.20707080D+00  0.23061768D+01  0.15270847D+01  0.30678990D-15  0.23397456D+00
  0.15493130D+00  0.31125554D-16  0.91035297D-02  0.60280985D-02  0.12110394D-17
  0.47282877D-08  0.12750426D-08  0.14910543D-09  0.86584187D-10 -0.38761976D-10
 -0.12598913D-10  0.49511718D+01 -0.75065513D-10 -0.31665237D-14  0.50232412D+00
 -0.76158170D-11 -0.32126157D-15  0.19544529D-01 -0.29631775D-12 -0.12499710D-16
 -0.77712145D+02 -0.20956063D+02 -0.24506341D+01 -0.14230637D+01  0.63707664D+00
  0.20707080D+00  0.23061768D+01 -0.15270847D+01  0.12818262D-13  0.23397456D+00
 -0.15493130D+00  0.13004845D-14  0.91035297D-02 -0.60280985D-02  0.50599515D-16
 -0.77712145D+02 -0.20956063D+02 -0.24506341D+01 -0.14230637D+01  0.63707664D+00
  0.20707080D+00  0.23061768D+01  0.15270847D+01 -0.38478600D-14  0.23397456D+00
  0.15493130D+00 -0.39038696D-15  0.91035297D-02  0.60280985D-02 -0.15189255D-16
 -0.47282863D-08 -0.12750422D-08 -0.14910539D-09 -0.86584430D-10  0.38762085D-10
  0.12598949D-10  0.49511718D+01 -0.75061413D-10  0.13256706D-13  0.50232412D+00
 -0.76154009D-11  0.13449671D-14  0.19544529D-01 -0.29630156D-12  0.52330251D-16
 -0.11439847D+01 -0.30849002D+00 -0.36075161D-01 -0.11439847D+01 -0.30849002D+00
 -0.36075161D-01 -0.69604895D-10 -0.18769844D-10 -0.21949661D-11  0.11439847D+01
  0.30849002D+00  0.36075161D-01  0.11439847D+01  0.30849002D+00  0.36075161D-01
  0.69604099D-10  0.18769629D-10  0.21949410D-11
MO    8     MO 0.0        OCC NO =    2.0000000  ORB. ENERGY =   -0.806610
 -0.44866963D+02 -0.12098944D+02 -0.14148690D+01 -0.82160623D+00  0.36781637D+00
  0.11955238D+00  0.15270759D+01 -0.40695112D+01  0.15124627D-14  0.15493041D+00
 -0.41287471D+00  0.15344782D-15  0.60280636D-02 -0.16064213D-01  0.59703787D-17
  0.44866963D+02  0.12098944D+02  0.14148690D+01  0.82160623D+00 -0.36781637D+00
 -0.11955238D+00 -0.15270759D+01 -0.40695112D+01 -0.21283346D-15 -0.15493041D+00
 -0.41287471D+00 -0.21593147D-16 -0.60280636D-02 -0.16064213D-01 -0.84015055D-18
  0.89734193D+02  0.24197961D+02  0.28297466D+01  0.16432134D+01 -0.73563314D+00
 -0.23910489D+00 -0.26089398D-09 -0.14245207D+01  0.11838382D-15 -0.26469156D-10
 -0.14452561D+00  0.12010702D-16 -0.10298673D-11 -0.56232315D-02  0.46731484D-18
  0.44866963D+02  0.12098944D+02  0.14148690D+01  0.82160623D+00 -0.36781637D+00
 -0.11955238D+00  0.15270759D+01 -0.40695112D+01 -0.47880597D-15  0.15493041D+00
 -0.41287471D+00 -0.48577549D-16  0.60280636D-02 -0.16064213D-01 -0.18900651D-17
 -0.44866963D+02 -0.12098944D+02 -0.14148690D+01 -0.82160623D+00  0.36781637D+00
  0.11955238D+00 -0.15270759D+01 -0.40695112D+01  0.27939151D-14 -0.15493041D+00
 -0.41287471D+00  0.28345834D-15 -0.60280636D-02 -0.16064213D-01  0.11028855D-16
 -0.89734193D+02 -0.24197961D+02 -0.28297466D+01 -0.16432134D+01  0.73563314D+00
  0.23910489D+00 -0.26088105D-09 -0.14245207D+01 -0.66930965D-14 -0.26467844D-10
 -0.14452561D+00 -0.67905214D-15 -0.10298162D-11 -0.56232315D-02 -0.26420698D-16
  0.66049111D+00  0.17810982D+00  0.20828357D-01 -0.66049111D+00 -0.17810982D+00
 -0.20828357D-01 -0.13209663D+01 -0.35621533D+00 -0.41656211D-01 -0.66049111D+00
 -0.17810982D+00 -0.20828357D-01  0.66049111D+00  0.17810982D+00  0.20828357D-01
  0.13209663D+01  0.35621533D+00  0.41656211D-01
MO    9     MO 0.0        OCC NO =    2.0000000  ORB. ENERGY =   -0.786793
  0.66195549D+02  0.17850467D+02  0.20874610D+01  0.10251058D+01 -0.45891898D+00
 -0.14916372D+00 -0.86935927D+00 -0.50193180D+00 -0.44658811D-15 -0.88201369D-01
 -0.50923793D-01 -0.45308866D-16 -0.34317567D-02 -0.19813533D-02 -0.17628865D-17
  0.66195549D+02  0.17850467D+02  0.20874610D+01  0.10251058D+01 -0.45891898D+00
 -0.14916372D+00 -0.86935927D+00  0.50193180D+00  0.37071337D-15 -0.88201369D-01
  0.50923793D-01  0.37610949D-16 -0.34317567D-02  0.19813533D-02  0.14633744D-17
  0.66195554D+02  0.17850469D+02  0.20874611D+01  0.10251068D+01 -0.45891940D+00
 -0.14916385D+00 -0.70454961D-15  0.10038391D+01 -0.10284024D-14 -0.71480506D-16
  0.10184510D+00 -0.10433718D-15 -0.27811780D-17  0.39626098D-02 -0.40595722D-17
  0.66195549D+02  0.17850467D+02  0.20874610D+01  0.10251058D+01 -0.45891898D+00
 -0.14916372D+00  0.86935927D+00  0.50193180D+00  0.43971521D-14  0.88201369D-01
  0.50923793D-01  0.44611572D-15  0.34317567D-02  0.19813533D-02  0.17357561D-16
  0.66195549D+02  0.17850467D+02  0.20874610D+01  0.10251058D+01 -0.45891898D+00
 -0.14916372D+00  0.86935927D+00 -0.50193180D+00 -0.21060574D-14  0.88201369D-01
 -0.50923793D-01 -0.21367133D-15  0.34317567D-02 -0.19813533D-02 -0.83135672D-17
  0.66195554D+02  0.17850469D+02  0.20874611D+01  0.10251068D+01 -0.45891940D+00
 -0.14916385D+00  0.18400915D-14 -0.10038391D+01 -0.22152600D-14  0.18668759D-15
 -0.10184510D+00 -0.22475054D-15  0.72636787D-17 -0.39626098D-02 -0.87446396D-17
 -0.10245526D-01 -0.27628363D-02 -0.32308910D-03 -0.10245526D-01 -0.27628363D-02
 -0.32308910D-03 -0.10249974D-01 -0.27640358D-02 -0.32322937D-03 -0.10245526D-01
 -0.27628363D-02 -0.32308910D-03 -0.10245526D-01 -0.27628363D-02 -0.32308910D-03
 -0.10249974D-01 -0.27640358D-02 -0.32322937D-03
MO   10     MO 0.0        OCC NO =    2.0000000  ORB. ENERGY =   -0.615240
  0.55539349D+02  0.14976888D+02  0.17514202D+01  0.11091794D+01 -0.49655700D+00
 -0.16139731D+00  0.22628464D+01  0.20853065D+01  0.25623710D-14  0.22957845D+00
  0.21156603D+00  0.25996690D-15  0.89324849D-02  0.82316541D-02  0.10114845D-16
 -0.55539349D+02 -0.14976888D+02 -0.17514202D+01 -0.11091794D+01  0.49655700D+00
  0.16139731D+00 -0.22628464D+01  0.20853065D+01 -0.52292958D-15 -0.22957845D+00
  0.21156603D+00 -0.53054136D-16 -0.89324849D-02  0.82316541D-02 -0.20642411D-17
 -0.12621587D-06 -0.34035705D-07 -0.39801874D-08 -0.25206641D-08  0.11284500D-08
  0.36678324D-09 -0.13489571D+01  0.68228981D-08  0.18981718D-14 -0.13685926D+00
  0.69222125D-09  0.19258016D-15 -0.53249478D-02  0.26933085D-10  0.74929480D-17
  0.55539349D+02  0.14976888D+02  0.17514202D+01  0.11091794D+01 -0.49655700D+00
 -0.16139731D+00 -0.22628464D+01 -0.20853065D+01 -0.13246862D-13 -0.22957845D+00
 -0.21156603D+00 -0.13439684D-14 -0.89324849D-02 -0.82316541D-02 -0.52291396D-16
 -0.55539349D+02 -0.14976888D+02 -0.17514202D+01 -0.11091794D+01  0.49655700D+00
  0.16139731D+00  0.22628464D+01 -0.20853065D+01  0.58287821D-16  0.22957845D+00
 -0.21156603D+00  0.59136261D-17  0.89324849D-02 -0.82316541D-02  0.23008856D-18
 -0.12621561D-06 -0.34035636D-07 -0.39801793D-08 -0.25206592D-08  0.11284477D-08
  0.36678252D-09  0.13489571D+01 -0.68228853D-08 -0.97234978D-14  0.13685926D+00
 -0.69221995D-09 -0.98650334D-15  0.53249478D-02 -0.26933034D-10 -0.38383072D-16
 -0.26285929D+01 -0.70883347D+00 -0.82891762D-01  0.26285929D+01  0.70883347D+00
  0.82891762D-01  0.59735801D-08  0.16108517D-08  0.18837477D-09 -0.26285929D+01
 -0.70883347D+00 -0.82891762D-01  0.26285929D+01  0.70883347D+00  0.82891762D-01
  0.59735601D-08  0.16108464D-08  0.18837414D-09
MO   11     MO 0.0        OCC NO =    2.0000000  ORB. ENERGY =   -0.615240
 -0.32065809D+02 -0.86469512D+01 -0.10111877D+01 -0.64038562D+00  0.28668759D+00
  0.93182868D-01 -0.20852788D+01  0.14502879D+00 -0.63307938D-15 -0.21156322D+00
  0.14713983D-01 -0.64229450D-16 -0.82315444D-02  0.57249464D-03 -0.24990525D-17
 -0.32065810D+02 -0.86469513D+01 -0.10111877D+01 -0.64038562D+00  0.28668759D+00
  0.93182869D-01 -0.20852788D+01 -0.14502878D+00  0.24825844D-16 -0.21156322D+00
 -0.14713982D-01  0.25187210D-17 -0.82315445D-02 -0.57249461D-03  0.97998906D-19
  0.64131409D+02  0.17293846D+02  0.20223688D+01  0.12807720D+01 -0.57337552D+00
 -0.18636585D+00 -0.26548552D-08 -0.34667745D+01  0.19666620D-15 -0.26934994D-09
 -0.35172370D+00  0.19952888D-16 -0.10479922D-10 -0.13684937D-01  0.77633100D-18
 -0.32065809D+02 -0.86469512D+01 -0.10111877D+01 -0.64038562D+00  0.28668759D+00
  0.93182868D-01  0.20852788D+01 -0.14502879D+00 -0.15981476D-14  0.21156322D+00
 -0.14713983D-01 -0.16214103D-15  0.82315444D-02 -0.57249464D-03 -0.63086162D-17
 -0.32065810D+02 -0.86469513D+01 -0.10111877D+01 -0.64038562D+00  0.28668759D+00
  0.93182869D-01  0.20852788D+01  0.14502878D+00  0.61844804D-14  0.21156322D+00
  0.14713982D-01  0.62745019D-15  0.82315445D-02  0.57249461D-03  0.24412959D-16
  0.64131409D+02  0.17293846D+02  0.20223688D+01  0.12807720D+01 -0.57337552D+00
 -0.18636585D+00  0.26548624D-08  0.34667745D+01  0.19425511D-14  0.26935067D-09
  0.35172370D+00  0.19708269D-15  0.10479950D-10  0.13684937D-01  0.76681332D-17
  0.15176134D+01  0.40924372D+00  0.47857409D-01  0.15176134D+01  0.40924372D+00
  0.47857409D-01 -0.30352285D+01 -0.81848792D+00 -0.95714874D-01  0.15176134D+01
  0.40924372D+00  0.47857409D-01  0.15176134D+01  0.40924372D+00  0.47857409D-01
 -0.30352285D+01 -0.81848792D+00 -0.95714874D-01
MO   12     MO 0.0        OCC NO =    2.0000000  ORB. ENERGY =   -0.531091
 -0.33301124D+02 -0.89800695D+01 -0.10501431D+01 -0.67751584D+00  0.30331003D+00
  0.98585706D-01 -0.21159361D+01 -0.12216483D+01  0.87083802D-15 -0.21467357D+00
 -0.12394306D+00  0.88351396D-16 -0.83525629D-02 -0.48224017D-02  0.34375940D-17
  0.33301124D+02  0.89800695D+01  0.10501431D+01  0.67751584D+00 -0.30331003D+00
 -0.98585706D-01  0.21159361D+01 -0.12216483D+01 -0.13658127D-16  0.21467357D+00
 -0.12394306D+00 -0.13856935D-17  0.83525629D-02 -0.48224017D-02 -0.53914844D-19
 -0.33301201D+02 -0.89800901D+01 -0.10501455D+01 -0.67751773D+00  0.30331088D+00
  0.98585982D-01 -0.46476616D-14  0.24432635D+01 -0.32309748D-15 -0.47153131D-15
  0.24788278D+00 -0.32780050D-16 -0.18346436D-16  0.96446733D-02 -0.12754128D-17
  0.33301124D+02  0.89800695D+01  0.10501431D+01  0.67751584D+00 -0.30331003D+00
 -0.98585706D-01 -0.21159361D+01 -0.12216483D+01  0.25073186D-14 -0.21467357D+00
 -0.12394306D+00  0.25438152D-15 -0.83525629D-02 -0.48224017D-02  0.98975276D-17
 -0.33301124D+02 -0.89800695D+01 -0.10501431D+01 -0.67751584D+00  0.30331003D+00
  0.98585706D-01  0.21159361D+01 -0.12216483D+01 -0.96009317D-14  0.21467357D+00
 -0.12394306D+00 -0.97406832D-15  0.83525629D-02 -0.48224017D-02 -0.37899248D-16
  0.33301201D+02  0.89800901D+01  0.10501455D+01  0.67751773D+00 -0.30331088D+00
 -0.98585982D-01  0.72615723D-14  0.24432635D+01 -0.25046861D-14  0.73672720D-15
  0.24788278D+00 -0.25411444D-15  0.28664731D-16  0.96446733D-02 -0.98871361D-17
  0.25693713D+01  0.69286361D+00  0.81024229D-01 -0.25693713D+01 -0.69286361D+00
 -0.81024229D-01  0.25693669D+01  0.69286242D+00  0.81024090D-01 -0.25693713D+01
 -0.69286361D+00 -0.81024229D-01  0.25693713D+01  0.69286361D+00  0.81024229D-01
 -0.25693669D+01 -0.69286242D+00 -0.81024090D-01
MO   13     MO 0.0        OCC NO =    2.0000000  ORB. ENERGY =   -0.301623
  0.20071713D+02  0.54125914D+01  0.63295672D+00  0.58213488D+00 -0.26060992D+00
 -0.84706770D-01  0.58567792D+00  0.33814316D+00 -0.33647524D-14  0.59420306D-01
  0.34306519D-01 -0.34137299D-15  0.23119373D-02  0.13348050D-02 -0.13282209D-16
  0.20071713D+02  0.54125914D+01  0.63295672D+00  0.58213488D+00 -0.26060992D+00
 -0.84706770D-01  0.58567792D+00 -0.33814316D+00  0.52214048D-15  0.59420306D-01
 -0.34306519D-01  0.52974077D-16  0.23119373D-02 -0.13348050D-02  0.20611261D-17
  0.20072088D+02  0.54126926D+01  0.63296856D+00  0.58214287D+00 -0.26061350D+00
 -0.84707933D-01 -0.10384623D-14 -0.67626924D+00 -0.11394041D-15 -0.10535782D-15
 -0.68611304D-01 -0.11559893D-16 -0.40992834D-17 -0.26695425D-02 -0.44977467D-18
  0.20071713D+02  0.54125914D+01  0.63295672D+00  0.58213488D+00 -0.26060992D+00
 -0.84706770D-01 -0.58567792D+00 -0.33814316D+00 -0.22694473D-15 -0.59420306D-01
 -0.34306519D-01 -0.23024814D-16 -0.23119373D-02 -0.13348050D-02 -0.89585413D-18
  0.20071713D+02  0.54125914D+01  0.63295672D+00  0.58213488D+00 -0.26060992D+00
 -0.84706770D-01 -0.58567792D+00  0.33814316D+00 -0.32280490D-16 -0.59420306D-01
  0.34306519D-01 -0.32750366D-17 -0.23119373D-02  0.13348050D-02 -0.12742579D-18
  0.20072088D+02  0.54126926D+01  0.63296856D+00  0.58214287D+00 -0.26061350D+00
 -0.84707933D-01 -0.14512949D-14  0.67626924D+00  0.12568502D-13 -0.14724200D-15
  0.68611304D-01  0.12751450D-14 -0.57289215D-17  0.26695425D-02  0.49613599D-16
  0.25941553D+01  0.69954693D+00  0.81805784D-01  0.25941553D+01  0.69954693D+00
  0.81805784D-01  0.25941659D+01  0.69954978D+00  0.81806117D-01  0.25941553D+01
  0.69954693D+00  0.81805784D-01  0.25941553D+01  0.69954693D+00  0.81805784D-01
  0.25941659D+01  0.69954978D+00  0.81806117D-01
MO   14     MO 0.0        OCC NO =    2.0000000  ORB. ENERGY =   -0.230166
 -0.24816966D+02 -0.66922088D+01 -0.78259713D+00 -0.55784444D+00  0.24973559D+00
  0.81172255D-01 -0.18549701D+01  0.22699911D+01  0.23724370D-14 -0.18819712D+00
  0.23030332D+00  0.24069703D-15 -0.73224115D-02  0.89606883D-02  0.93650889D-17
  0.24816965D+02  0.66922088D+01  0.78259713D+00  0.55784444D+00 -0.24973559D+00
 -0.81172255D-01  0.18549701D+01  0.22699911D+01 -0.50660382D-15  0.18819712D+00
  0.23030332D+00 -0.51397796D-16  0.73224115D-02  0.89606883D-02 -0.19997959D-17
  0.49634480D+02  0.13384566D+02  0.15652116D+01  0.11157011D+01 -0.49947663D+00
 -0.16234628D+00  0.17334243D-08 -0.94288428D+00  0.45503625D-15  0.17586561D-09
 -0.95660893D-01  0.46165977D-16  0.68426147D-11 -0.37219934D-02  0.17962352D-17
  0.24816966D+02  0.66922088D+01  0.78259713D+00  0.55784444D+00 -0.24973559D+00
 -0.81172255D-01 -0.18549701D+01  0.22699911D+01 -0.20285069D-14 -0.18819712D+00
  0.23030332D+00 -0.20580340D-15 -0.73224115D-02  0.89606883D-02 -0.80074402D-17
 -0.24816965D+02 -0.66922088D+01 -0.78259713D+00 -0.55784444D+00  0.24973559D+00
  0.81172255D-01  0.18549701D+01  0.22699911D+01  0.85375866D-14  0.18819712D+00
  0.23030332D+00  0.86618600D-15  0.73224115D-02  0.89606883D-02  0.33701740D-16
 -0.49634480D+02 -0.13384566D+02 -0.15652116D+01 -0.11157011D+01  0.49947663D+00
  0.16234628D+00  0.17333828D-08 -0.94288428D+00 -0.94894271D-14  0.17586140D-09
 -0.95660893D-01 -0.96275555D-15  0.68424510D-11 -0.37219934D-02 -0.37459088D-16
 -0.17244506D+01 -0.46502001D+00 -0.54379949D-01  0.17244506D+01  0.46502001D+00
  0.54379949D-01  0.34489164D+01  0.93004412D+00  0.10876038D+00  0.17244506D+01
  0.46502001D+00  0.54379949D-01 -0.17244506D+01 -0.46502001D+00 -0.54379949D-01
 -0.34489164D+01 -0.93004412D+00 -0.10876038D+00
MO   15     MO 0.0        OCC NO =    2.0000000  ORB. ENERGY =   -0.230166
 -0.42984418D+02 -0.11591292D+02 -0.13555035D+01 -0.96621930D+00  0.43255669D+00
  0.14059511D+00  0.12806319D+00 -0.18549614D+01  0.71383325D-14  0.12992728D-01
 -0.18819623D+00  0.72422383D-15  0.50552370D-03 -0.73223769D-02  0.28178247D-16
 -0.42984418D+02 -0.11591292D+02 -0.13555035D+01 -0.96621930D+00  0.43255669D+00
  0.14059511D+00  0.12806319D+00  0.18549614D+01 -0.48648202D-15  0.12992728D-01
  0.18819623D+00 -0.49356327D-16  0.50552369D-03  0.73223769D-02 -0.19203660D-17
 -0.25752072D-07 -0.69443720D-08 -0.81208549D-09 -0.57886488D-09  0.25914601D-09
  0.84230951D-10  0.33409456D+01  0.48920184D-09  0.11344736D-14  0.33895765D+00