  Extended Huckel Theory orbitals
GAUSSIAN             48 MOL ORBITALS    144 PRIMITIVES       16 NUCLEI
   C   1    (CENTRE  1)  -0.75252733  2.37107445  0.28894406  CHARGE =  6.0
   N   2    (CENTRE  2)   0.30906081 -0.14146697 -0.00070426  CHARGE =  7.0
   C   3    (CENTRE  3)   1.38783676 -1.34991592  2.03565032  CHARGE =  6.0
   O   4    (CENTRE  4)   1.23855028 -0.57146665  4.19845720  CHARGE =  8.0
   N   5    (CENTRE  5)   2.68994502 -3.53860470  1.39158706  CHARGE =  7.0
   C   6    (CENTRE  6)   3.45260780 -5.26958371  3.39736873  CHARGE =  6.0
   C   7    (CENTRE  7)   1.89750700 -7.55072869  3.52043022  CHARGE =  6.0
   C   8    (CENTRE  8)   0.63257643 -9.43692084  3.55049833  CHARGE =  6.0
   H   9    (CENTRE  9)   0.62386835  3.87277682 -0.10743062  CHARGE =  1.0
   H  10    (CENTRE 10)  -2.37316628  2.60496135 -0.97266055  CHARGE =  1.0
   H  11    (CENTRE 11)  -1.37540489  2.56617612  2.24243437  CHARGE =  1.0
   H  12    (CENTRE 12)   0.93092566 -0.62077279 -1.73531922  CHARGE =  1.0
   H  13    (CENTRE 13)   2.21710632 -4.37011495 -0.25786857  CHARGE =  1.0
   H  14    (CENTRE 14)   5.44108160 -5.80144398  3.14860072  CHARGE =  1.0
   H  15    (CENTRE 15)   3.30906324 -4.19592367  5.15863963  CHARGE =  1.0
   H  16    (CENTRE 16)  -0.49559866-11.09511662  3.61785588  CHARGE =  1.0
CENTRE ASSIGNMENTS    1  1  1  1  1  1  1  1  1  1  1  1  1  1  1  2  2  2  2  2
CENTRE ASSIGNMENTS    2  2  2  2  2  2  2  2  2  2  3  3  3  3  3  3  3  3  3  3
CENTRE ASSIGNMENTS    3  3  3  3  3  4  4  4  4  4  4  4  4  4  4  4  4  4  4  4
CENTRE ASSIGNMENTS    5  5  5  5  5  5  5  5  5  5  5  5  5  5  5  6  6  6  6  6
CENTRE ASSIGNMENTS    6  6  6  6  6  6  6  6  6  6  7  7  7  7  7  7  7  7  7  7
CENTRE ASSIGNMENTS    7  7  7  7  7  8  8  8  8  8  8  8  8  8  8  8  8  8  8  8
CENTRE ASSIGNMENTS    9  9  9 10 10 10 11 11 11 12 12 12 13 13 13 14 14 14 15 15
CENTRE ASSIGNMENTS   15 16 16 16
TYPE ASSIGNMENTS      1  1  1  1  1  1  2  3  4  2  3  4  2  3  4  1  1  1  1  1
TYPE ASSIGNMENTS      1  2  3  4  2  3  4  2  3  4  1  1  1  1  1  1  2  3  4  2
TYPE ASSIGNMENTS      3  4  2  3  4  1  1  1  1  1  1  2  3  4  2  3  4  2  3  4
TYPE ASSIGNMENTS      1  1  1  1  1  1  2  3  4  2  3  4  2  3  4  1  1  1  1  1
TYPE ASSIGNMENTS      1  2  3  4  2  3  4  2  3  4  1  1  1  1  1  1  2  3  4  2
TYPE ASSIGNMENTS      3  4  2  3  4  1  1  1  1  1  1  2  3  4  2  3  4  2  3  4
TYPE ASSIGNMENTS      1  1  1  1  1  1  1  1  1  1  1  1  1  1  1  1  1  1  1  1
TYPE ASSIGNMENTS      1  1  1  1
EXPONENTS  0.7161684D+02 0.1304510D+02 0.3530512D+01 0.2941249D+01 0.6834830D+00
EXPONENTS  0.2222900D+00 0.2941249D+01 0.2941249D+01 0.2941249D+01 0.6834830D+00
EXPONENTS  0.6834830D+00 0.6834830D+00 0.2222900D+00 0.2222900D+00 0.2222900D+00
EXPONENTS  0.9910617D+02 0.1805231D+02 0.4885660D+01 0.3780456D+01 0.8784970D+00
EXPONENTS  0.2857140D+00 0.3780456D+01 0.3780456D+01 0.3780456D+01 0.8784970D+00
EXPONENTS  0.8784970D+00 0.8784970D+00 0.2857140D+00 0.2857140D+00 0.2857140D+00
EXPONENTS  0.7161684D+02 0.1304510D+02 0.3530512D+01 0.2941249D+01 0.6834830D+00
EXPONENTS  0.2222900D+00 0.2941249D+01 0.2941249D+01 0.2941249D+01 0.6834830D+00
EXPONENTS  0.6834830D+00 0.6834830D+00 0.2222900D+00 0.2222900D+00 0.2222900D+00
EXPONENTS  0.1307093D+03 0.2380886D+02 0.6443608D+01 0.5033151D+01 0.1169596D+01
EXPONENTS  0.3803890D+00 0.5033151D+01 0.5033151D+01 0.5033151D+01 0.1169596D+01
EXPONENTS  0.1169596D+01 0.1169596D+01 0.3803890D+00 0.3803890D+00 0.3803890D+00
EXPONENTS  0.9910617D+02 0.1805231D+02 0.4885660D+01 0.3780456D+01 0.8784970D+00
EXPONENTS  0.2857140D+00 0.3780456D+01 0.3780456D+01 0.3780456D+01 0.8784970D+00
EXPONENTS  0.8784970D+00 0.8784970D+00 0.2857140D+00 0.2857140D+00 0.2857140D+00
EXPONENTS  0.7161684D+02 0.1304510D+02 0.3530512D+01 0.2941249D+01 0.6834830D+00
EXPONENTS  0.2222900D+00 0.2941249D+01 0.2941249D+01 0.2941249D+01 0.6834830D+00
EXPONENTS  0.6834830D+00 0.6834830D+00 0.2222900D+00 0.2222900D+00 0.2222900D+00
EXPONENTS  0.7161684D+02 0.1304510D+02 0.3530512D+01 0.2941249D+01 0.6834830D+00
EXPONENTS  0.2222900D+00 0.2941249D+01 0.2941249D+01 0.2941249D+01 0.6834830D+00
EXPONENTS  0.6834830D+00 0.6834830D+00 0.2222900D+00 0.2222900D+00 0.2222900D+00
EXPONENTS  0.7161684D+02 0.1304510D+02 0.3530512D+01 0.2941249D+01 0.6834830D+00
EXPONENTS  0.2222900D+00 0.2941249D+01 0.2941249D+01 0.2941249D+01 0.6834830D+00
EXPONENTS  0.6834830D+00 0.6834830D+00 0.2222900D+00 0.2222900D+00 0.2222900D+00
EXPONENTS  0.3425251D+01 0.6239140D+00 0.1688550D+00 0.3425251D+01 0.6239140D+00
EXPONENTS  0.1688550D+00 0.3425251D+01 0.6239140D+00 0.1688550D+00 0.3425251D+01
EXPONENTS  0.6239140D+00 0.1688550D+00 0.3425251D+01 0.6239140D+00 0.1688550D+00
EXPONENTS  0.3425251D+01 0.6239140D+00 0.1688550D+00 0.3425251D+01 0.6239140D+00
EXPONENTS  0.1688550D+00 0.3425251D+01 0.6239140D+00 0.1688550D+00
MO    1     MO 0.0        OCC NO =    0.0000000  ORB. ENERGY =  -20.289506
 -0.81810136D-02 -0.22061138D-02 -0.25798633D-03  0.81464683D-03 -0.36470079D-03
 -0.11853971D-03  0.68399793D-03  0.48145617D-02  0.73722910D-02  0.69395422D-04
  0.48846427D-03  0.74796023D-03  0.27000512D-05  0.19005267D-04  0.29101788D-04
  0.31309409D-01  0.84429786D-02  0.98733471D-03  0.56729806D-02 -0.25396771D-02
 -0.82547687D-03 -0.47217775D-01  0.79468242D-01  0.18610068D-01 -0.47905089D-02
  0.80625002D-02  0.18880961D-02 -0.18638955D-03  0.31369649D-03  0.73462215D-04
  0.18182048D+01  0.49030193D+00  0.57336658D-01  0.32610335D-01 -0.14598982D-01
 -0.47451480D-02  0.22678656D-01 -0.11922901D+00 -0.33323613D+00  0.23008767D-02
 -0.12096451D-01 -0.33808673D-01  0.89522978D-04 -0.47065118D-03 -0.13154347D-02
  0.14626617D+04  0.39442514D+03  0.46124693D+02 -0.23093698D+00  0.10338570D+00
  0.33603725D-01  0.43099528D-01 -0.22398947D+00 -0.62081099D+00  0.43726883D-02
 -0.22724985D-01 -0.62984749D-01  0.17013332D-03 -0.88418766D-03 -0.24506215D-02
  0.33715600D-01  0.90918384D-02  0.10632134D-02  0.53186717D-02 -0.23810603D-02
 -0.77392130D-03  0.39544662D-01 -0.43600776D-01  0.68963948D-01  0.40120284D-02
 -0.44235440D-02  0.69967805D-02  0.15610036D-03 -0.17211165D-03  0.27223137D-03
 -0.12829825D-01 -0.34597247D-02 -0.40458550D-03  0.51937329D-03 -0.23251284D-03
 -0.75574296D-04 -0.28370128D-02  0.13092563D-02  0.86045729D-02 -0.28783085D-03
  0.13283139D-03  0.87298213D-03 -0.11198981D-04  0.51682305D-05  0.33966166D-04
  0.44037451D-03  0.11875256D-03  0.13887106D-04 -0.13498303D-04  0.60429151D-05
  0.19641456D-05 -0.96654869D-04 -0.32983571D-03 -0.78587197D-03 -0.98061781D-05
 -0.33463681D-04 -0.79731115D-04 -0.38154076D-06 -0.13020117D-05 -0.31021944D-05
  0.24555492D-04  0.66216993D-05  0.77435164D-06  0.26862438D-04 -0.12025766D-04
 -0.39087683D-05 -0.81673042D-04 -0.10829931D-03  0.17354910D-03 -0.82861878D-05
 -0.10987572D-04  0.17607528D-04 -0.32240067D-06 -0.42750669D-06  0.68507728D-06
  0.53470452D-04  0.14418987D-04  0.16861721D-05  0.63584447D-03  0.17146354D-03
  0.20051134D-04 -0.86306952D-04 -0.23273766D-04 -0.27216597D-05  0.97033703D-03
  0.26166371D-03  0.30599240D-04  0.87418564D-03  0.23573526D-03  0.27567140D-04
  0.49331708D-03  0.13302922D-03  0.15556582D-04 -0.47223904D-03 -0.12734526D-03
 -0.14891894D-04 -0.84795810D-05 -0.22866267D-05 -0.26740063D-06
MO    2     MO 0.0        OCC NO =    0.0000000  ORB. ENERGY =  -15.315546
 -0.15041402D+01 -0.40561045D+00 -0.47432706D-01 -0.12203902D-01  0.54634382D-02
  0.17757966D-02  0.55769006D-01 -0.13092701D+00 -0.96141313D-02  0.56580782D-02
 -0.13283279D-01 -0.97540749D-03  0.22014565D-03 -0.51682849D-03 -0.37951352D-04
 -0.75308518D+03 -0.20307895D+03 -0.23748360D+02  0.14189212D+00 -0.63522192D-01
 -0.20646759D-01 -0.84889337D-01  0.33359868D-01 -0.53996153D-02 -0.86125008D-02
  0.33845463D-02 -0.54782135D-03 -0.33509596D-03  0.13168623D-03 -0.21314682D-04
 -0.32157143D+01 -0.86715804D+00 -0.10140679D+00 -0.30266813D-01  0.13549835D-01
  0.44041409D-02 -0.55544351D-02 -0.41211605D-01 -0.21173340D+00 -0.56352856D-03
 -0.41811482D-02 -0.21481540D-01 -0.21925884D-04 -0.16268096D-03 -0.83580812D-03
 -0.39587198D+00 -0.10675187D+00 -0.12483730D-01 -0.15092786D-01  0.67567277D-02
  0.21961569D-02  0.20445539D-01 -0.58645253D-01 -0.97431342D-01  0.20743144D-02
 -0.59498891D-02 -0.98849549D-02  0.80707783D-04 -0.23149932D-03 -0.38460554D-03
 -0.60295659D+03 -0.16259488D+03 -0.19014091D+02  0.11172390D+00 -0.50016500D-01
 -0.16256974D-01  0.77070039D-01 -0.11109498D-01  0.39839013D-01  0.78191891D-02
 -0.11271211D-02  0.40418921D-02  0.30422971D-03 -0.43854130D-04  0.15726230D-03
 -0.11890375D+01 -0.32063901D+00 -0.37496017D-01 -0.94432799D-02  0.42275640D-02
  0.13740969D-02 -0.35407883D-01  0.75141436D-01 -0.79905468D-01 -0.35923281D-02
  0.76235198D-02 -0.81068575D-02 -0.13977103D-03  0.29661745D-03 -0.31542325D-03
 -0.28184362D-01 -0.76002698D-02 -0.88878718D-03  0.39247114D-03 -0.17570133D-03
 -0.57108695D-04  0.13233398D-01  0.20640562D-02  0.12683748D-01  0.13426024D-02
  0.20941007D-03  0.12868373D-02  0.52238247D-04  0.81477695D-05  0.50068527D-04
  0.30631987D-02  0.82603029D-03  0.96597246D-04 -0.79470841D-03  0.35577476D-03
  0.11563846D-03  0.94434562D-03  0.49075985D-02 -0.24681945D-02  0.95809155D-04
  0.49790337D-03 -0.25041216D-03  0.37277620D-05  0.19372525D-04 -0.97430872D-05
  0.24842129D-02  0.66989956D-03  0.78338788D-04  0.18121314D-02  0.48866426D-03
  0.57144934D-04  0.10247579D-02  0.27633899D-03  0.32315385D-04  0.53284039D-01
  0.14368718D-01  0.16802936D-02  0.42476837D-01  0.11454419D-01  0.13394923D-02
  0.19116433D-02  0.51549890D-03  0.60283006D-04  0.10263255D-02  0.27676170D-03
  0.32364817D-04  0.33011106D-03  0.89018641D-04  0.10409937D-04
MO    3     MO 0.0        OCC NO =    0.6666670  ORB. ENERGY =  -15.314786
  0.11826383D+01  0.31891338D+00  0.37294218D-01  0.10459747D-01 -0.46826155D-02
 -0.15220036D-02 -0.42067376D-01  0.10557813D+00  0.11681795D-01 -0.42679710D-02
  0.10711493D-01  0.11851836D-02 -0.16605908D-03  0.41676495D-03  0.46113362D-04
  0.60294848D+03  0.16259269D+03  0.19013835D+02 -0.11463653D+00  0.51320426D-01
  0.16680792D-01  0.44274474D-01  0.29947620D-01  0.62692109D-01  0.44918944D-02
  0.30383545D-02  0.63604671D-02  0.17477103D-03  0.11821657D-03  0.24747363D-03
 -0.30040172D+00 -0.81007125D-01 -0.94730972D-02 -0.24770285D-02  0.11089152D-02
  0.36043379D-03  0.15955471D+00 -0.23453659D+00  0.77015759D-01  0.16187720D-01
 -0.23795051D-01  0.78136804D-02  0.62983508D-03 -0.92582267D-03  0.30401626D-03
 -0.25995779D-01 -0.70100892D-02 -0.81977080D-03 -0.11670920D-02  0.52248293D-03
  0.16982399D-03 -0.10861781D+00  0.15535803D+00 -0.72295293D-01 -0.11019884D-01
  0.15761942D-01 -0.73347621D-02 -0.42876358D-03  0.61326836D-03 -0.28538220D-03
 -0.75315163D+03 -0.20309687D+03 -0.23750456D+02  0.14081569D+00 -0.63040299D-01
 -0.20490128D-01  0.80027173D-01 -0.65241301D-02 -0.55761943D-01  0.81192069D-02
 -0.66190970D-03 -0.56573628D-02  0.31590284D-03 -0.25753642D-04 -0.22011718D-03
 -0.14583687D+01 -0.39326757D+00 -0.45989311D-01 -0.12688230D-01  0.56802619D-02
  0.18462714D-02 -0.40479102D-01  0.91669187D-01 -0.10289722D+00 -0.41068318D-02
  0.93003527D-02 -0.10439500D-01 -0.15978944D-03  0.36186001D-03 -0.40618217D-03
 -0.35252392D-01 -0.95062534D-02 -0.11116758D-02  0.54001560D-03 -0.24175398D-03
 -0.78577970D-04  0.16167256D-01  0.28926044D-02  0.16696784D-01  0.16402587D-02
  0.29347092D-03  0.16939823D-02  0.63819518D-04  0.11418426D-04  0.65909807D-04
  0.39251563D-02  0.10584681D-02  0.12377888D-03 -0.10076575D-02  0.45110772D-03
  0.14662480D-03  0.13013188D-02  0.61207041D-02 -0.32494834D-02  0.13202608D-03
  0.62097973D-03 -0.32967830D-03  0.51368976D-05  0.24161205D-04 -0.12827190D-04
 -0.19364105D-02 -0.52217768D-03 -0.61064030D-04 -0.74727337D-03 -0.20151176D-03
 -0.23565005D-04  0.96506081D-03  0.26024091D-03  0.30432857D-04 -0.43660178D-01
 -0.11773522D-01 -0.13768085D-02  0.54573208D-01  0.14716359D-01  0.17209471D-02
  0.17344561D-02  0.46771811D-03  0.54695468D-04 -0.16532920D-02 -0.44583119D-03
 -0.52135988D-04  0.41541198D-03  0.11202112D-03  0.13099872D-04
MO    4     MO 0.0        OCC NO =    0.6666670  ORB. ENERGY =  -10.941692
  0.71504457D-01  0.19282082D-01  0.22548761D-02  0.21546929D-04 -0.96461209D-05
 -0.31353056D-05 -0.18402284D-03  0.33167046D-03 -0.11896918D-04 -0.18670148D-04
  0.33649826D-04 -0.12070090D-05 -0.72642191D-06  0.13092543D-05 -0.46962552D-07
 -0.23506560D-01 -0.63388416D-02 -0.74127373D-03 -0.11169406D-03  0.50003140D-04
  0.16252631D-04 -0.43033227D-03  0.72063167D-03 -0.27007670D-02 -0.43659630D-04
  0.73112137D-04 -0.27400801D-03 -0.16987128D-05  0.28446536D-05 -0.10661128D-04
  0.38413348D+01  0.10358645D+01  0.12113558D+00  0.36486017D-04 -0.16334046D-04
 -0.53091006D-05 -0.42315369D-02  0.80212665D-02  0.10569888D-01 -0.42931313D-03
  0.81380243D-03  0.10723744D-02 -0.16703802D-04  0.31663590D-04  0.41724159D-04
 -0.15866834D-01 -0.42786915D-02 -0.50035688D-03  0.90310503D-03 -0.40430141D-03
 -0.13141115D-03  0.51931869D-02 -0.59801248D-02  0.20579253D-01  0.52687788D-03
 -0.60671713D-03  0.20878803D-02  0.20499856D-04 -0.23606255D-04  0.81235610D-04
 -0.89877634D+00 -0.24236642D+00 -0.28342696D-01  0.57222339D-02 -0.25617268D-02
 -0.83264373D-03 -0.67930653D-01  0.50870943D-01 -0.10800523D+00 -0.68919469D-02
  0.51611434D-02 -0.10957738D-01 -0.26815249D-03  0.20081023D-03 -0.42634468D-03
  0.19141757D+03  0.51618169D+02  0.60363077D+01 -0.21462861D-01  0.96084854D-02
  0.31230728D-02  0.13791822D+00  0.19221888D+00 -0.78874290D-03  0.13992576D-01
  0.19501683D-01 -0.80022386D-04  0.54442598D-03  0.75877542D-03 -0.31135272D-05
  0.43364248D+03  0.11693718D+03  0.13674813D+02 -0.89713501D-01  0.40162906D-01
  0.13054262D-01  0.46587075D-01  0.66840610D-01 -0.29834031D-02  0.47265198D-02
  0.67813544D-02 -0.30268296D-03  0.18390039D-03  0.26385031D-03 -0.11776850D-04
  0.35590146D+03  0.95973332D+02  0.11223268D+02 -0.46079861D-01  0.20629015D-01
  0.67051063D-02 -0.22050772D+00 -0.32674145D+00  0.83440874D-02 -0.22371744D-01
 -0.33149751D-01  0.84655442D-03 -0.87044433D-03 -0.12897972D-02  0.32937911D-04
 -0.89517759D-05 -0.24139601D-05 -0.28229114D-06 -0.21871249D-04 -0.58978601D-05
 -0.68970222D-06 -0.74462370D-04 -0.20079724D-04 -0.23481449D-05 -0.26049192D-03
 -0.70244954D-04 -0.82145219D-05 -0.58017468D-02 -0.15645147D-02 -0.18295606D-03
 -0.28471685D-01 -0.76777514D-02 -0.89784466D-03 -0.29409707D-01 -0.79307010D-02
 -0.92742486D-03 -0.94666086D-01 -0.25527913D-01 -0.29852621D-02
MO    5     MO 0.0        OCC NO =    0.6666670  ORB. ENERGY =  -10.918020
 -0.55508790D+01 -0.14968648D+01 -0.17504566D+00  0.96939239D-03 -0.43397722D-03
 -0.14105683D-03  0.12394339D-02 -0.31655514D-02 -0.15714806D-02  0.12574751D-03
 -0.32116293D-03 -0.15943551D-03  0.48926096D-05 -0.12495872D-04 -0.62033490D-05
  0.30533319D+00  0.82336961D-01  0.96286090D-02 -0.12854926D-02  0.57548866D-03
  0.18705235D-03  0.11509087D-01 -0.12189708D-01  0.32109926D-01  0.11676616D-02
 -0.12367144D-02  0.32577326D-02  0.45431485D-04 -0.48118197D-04  0.12675215D-03
 -0.51919161D+02 -0.14000659D+02 -0.16372584D+01  0.86890437D-02 -0.38899078D-02
 -0.12643476D-02  0.11473168D-01 -0.19483053D-01 -0.24281534D-01  0.11640172D-02
 -0.19766649D-02 -0.24634977D-02  0.45289818D-04 -0.76908480D-04 -0.95850268D-04
  0.24692810D+00  0.66587273D-01  0.77868199D-02 -0.51683584D-02  0.23137670D-02
  0.75204974D-03 -0.13528487D-01 -0.62374728D-02 -0.10123910D+00 -0.13725407D-02
 -0.63282653D-03 -0.10271274D-01 -0.53403052D-04 -0.24622124D-04 -0.39963649D-03
  0.24705056D+01  0.66620311D+00  0.77906801D-01 -0.12694034D-01  0.56828588D-02
  0.18471122D-02  0.61935080D-01 -0.14936011D+00  0.20545240D+00  0.62836623D-02
 -0.15153423D-01  0.20844302D-01  0.24448530D-03 -0.58959076D-03  0.81101199D-03
 -0.47835102D+03 -0.12899341D+03 -0.15084686D+02  0.13862302D+00 -0.62058701D-01
 -0.20171113D-01  0.65584462D-01  0.11302231D+00 -0.27139906D-01  0.66539111D-02
  0.11466747D-01 -0.27534955D-02  0.25889172D-03  0.44615051D-03 -0.10713356D-03
 -0.64806116D+02 -0.17475789D+02 -0.20436455D+01  0.58471903D-01 -0.26176679D-01
 -0.85082792D-02  0.45074968D+00  0.66961303D+00 -0.19599721D-01  0.45731080D-01
  0.67935994D-01 -0.19885016D-02  0.17793141D-02  0.26432674D-02 -0.77369022D-04
  0.33734872D+03  0.90970351D+02  0.10638212D+02 -0.13286281D+00  0.59479971D-01
  0.19332941D-01  0.24318133D+00  0.36364749D+00 -0.35549491D-02  0.24672109D-01
  0.36894076D-01 -0.36066951D-03  0.95994740D-03  0.14354822D-02 -0.14033002D-04
  0.68870232D-03  0.18571733D-03  0.21717988D-04  0.69040841D-03  0.18617740D-03
  0.21771789D-04  0.10529593D-02  0.28394385D-03  0.33204705D-04  0.19371034D-02
  0.52236454D-03  0.61085882D-04  0.95919877D-02  0.25866013D-02  0.30247999D-03
  0.57438011D-01  0.15488889D-01  0.18112877D-02  0.58748180D-01  0.15842193D-01
  0.18526034D-02 -0.54293738D-02 -0.14640996D-02 -0.17121341D-03
MO    6     MO 0.0        OCC NO =    2.0000000  ORB. ENERGY =  -10.913460
  0.47649081D+03  0.12849178D+03  0.15026025D+02 -0.10961702D+00  0.49073306D-01
  0.15950434D-01 -0.16528612D-01  0.31574732D-01  0.18805326D-01 -0.16769203D-02
  0.32034335D-02  0.19079057D-02 -0.65245956D-04  0.12463984D-03  0.74233181D-04
 -0.39863200D+01 -0.10749617D+01 -0.12570764D+00  0.22847256D-01 -0.10228248D-01
 -0.33245101D-02  0.20640010D-01 -0.13730857D+00 -0.23310482D+00  0.20940451D-02
 -0.13930727D-01 -0.23649795D-01  0.81475296D-04 -0.54201798D-03 -0.92016836D-03
  0.34980090D+03  0.94328240D+02  0.11030889D+02 -0.71962780D-01  0.32216270D-01
  0.10471344D-01  0.67424484D-02  0.61456204D-04  0.24140347D-01  0.68405917D-03
  0.62350762D-05  0.24491735D-02  0.26615513D-04  0.24259561D-06  0.95292937D-04
 -0.16428856D+01 -0.44302479D+00 -0.51808013D-01  0.27249833D-01 -0.12199186D-01
 -0.39651333D-02 -0.50153587D-01  0.18693297D+00  0.45230739D+00 -0.50883620D-02
  0.18965396D-01  0.45889116D-01 -0.19797887D-03  0.73790892D-03  0.17854617D-02
 -0.16495571D+01 -0.44482396D+00 -0.52018387D-01  0.10339365D-01 -0.46287216D-02
 -0.15044836D-02  0.11395698D+00 -0.21643500D+00 -0.54603470D-01  0.11561577D-01
 -0.21958548D-01 -0.55398292D-02  0.44983888D-03 -0.85436518D-03 -0.21554417D-03
 -0.27345864D+02 -0.73741582D+01 -0.86234534D+00  0.98365954D-02 -0.44036433D-02
 -0.14313285D-02  0.56604793D-02 -0.35469856D-03  0.20406833D-01  0.57428734D-03
 -0.35986156D-04  0.20703875D-02  0.22344488D-04 -0.14001567D-05  0.80555057D-04
 -0.82416107D+01 -0.22224546D+01 -0.25989724D+00  0.48893996D-02 -0.21888845D-02
 -0.71145926D-03  0.27634274D-01  0.42211714D-01 -0.31085123D-02  0.28036519D-02
  0.42826149D-02 -0.31537599D-03  0.10908506D-03  0.16662885D-03 -0.12270713D-04
  0.20956826D+02  0.56512733D+01  0.66086854D+00 -0.86029488D-02  0.38513648D-02
  0.12518199D-02  0.17812214D-01  0.26403100D-01  0.17575019D-04  0.18071490D-02
  0.26787425D-02  0.17830842D-05  0.70312918D-04  0.10422505D-03  0.69376600D-07
 -0.55587390D-01 -0.14989846D-01 -0.17529290D-02 -0.56404143D-01 -0.15210094D-01
 -0.17786850D-02 -0.59398358D-01 -0.16017522D-01 -0.18731065D-02 -0.17295337D-01
 -0.46639072D-02 -0.54540242D-03 -0.81869481D-02 -0.22077146D-02 -0.25817256D-03
  0.31580832D-02  0.85161726D-03  0.99589054D-04  0.10912715D-02  0.29427523D-03
  0.34412868D-04  0.21375595D-03  0.57642007D-04  0.67407195D-05
MO    7     MO 0.0        OCC NO =    2.0000000  ORB. ENERGY =  -10.912407
 -0.35119466D+03 -0.94704085D+02 -0.11074841D+02  0.85304740D-01 -0.38189193D-01
 -0.12412740D-01 -0.12232599D-02  0.16480235D-01  0.12930747D-01 -0.12410658D-03
  0.16720121D-02  0.13118968D-02 -0.48287638D-05  0.65054987D-04  0.51043545D-04
 -0.86230956D+00 -0.23253269D+00 -0.27192725D-01  0.91114999D-02 -0.40790317D-02
 -0.13258167D-02 -0.21847580D+00  0.35026709D+00 -0.25707232D+00 -0.22165599D-01
  0.35536567D-01 -0.26081433D-01 -0.86242113D-03  0.13826599D-02 -0.10147787D-02
  0.47519696D+03  0.12814287D+03  0.14985224D+02 -0.10305211D+00  0.46134328D-01
  0.14995169D-01 -0.50148544D-02 -0.24605873D-02 -0.39369112D-01 -0.50878508D-03
 -0.24964037D-03 -0.39942170D-02 -0.19795913D-04 -0.97130582D-05 -0.15540780D-03
 -0.22893480D+01 -0.61735154D+00 -0.72194055D-01  0.32638987D-01 -0.14611798D-01
 -0.47493110D-02 -0.26789976D-01  0.19038261D+00  0.58061615D+00 -0.27179930D-02
  0.19315381D-01  0.58906757D-01 -0.10575214D-03  0.75152620D-03  0.22919543D-02
 -0.22535631D+01 -0.60770181D+00 -0.71065570D-01  0.15669667D-01 -0.70149885D-02
 -0.22800972D-02  0.15644127D+00 -0.29323837D+00 -0.72256652D-01  0.15871847D-01
 -0.29750682D-01 -0.73308438D-02  0.61754327D-03 -0.11575422D-02 -0.28522913D-03
 -0.29403921D+02 -0.79291394D+01 -0.92724569D+00  0.11102995D-01 -0.49705847D-02
 -0.16156030D-02  0.62457129D-02 -0.13496871D-02  0.28239151D-01  0.63366257D-03
 -0.13693332D-03  0.28650201D-02  0.24654672D-04 -0.53278294D-05  0.11147278D-03
 -0.10210754D+02 -0.27534591D+01 -0.32199372D+00  0.57547615D-02 -0.25762894D-02
 -0.83737855D-03  0.30645063D-01  0.46801529D-01 -0.38671234D-02  0.31091134D-02
  0.47482774D-02 -0.39234134D-03  0.12097001D-03  0.18474694D-03 -0.15265296D-04
  0.23291294D+02  0.62807922D+01  0.73448546D+00 -0.96348626D-02  0.43133316D-02
  0.14019742D-02  0.20401582D-01  0.30249172D-01  0.74982901D-04  0.20698548D-02
  0.30689480D-02  0.76074355D-05  0.80534332D-04  0.11940725D-03  0.29599164D-06
  0.40291781D-01  0.10865190D-01  0.12705873D-02  0.41501079D-01  0.11191293D-01
  0.13087221D-02  0.39888079D-01  0.10756327D-01  0.12578567D-02 -0.52627538D-02
 -0.14191684D-02 -0.16595911D-03 -0.10248267D-01 -0.27635755D-02 -0.32317555D-03
  0.33981834D-02  0.91636332D-03  0.10716053D-03  0.85197127D-03  0.22974487D-03
  0.26866617D-04  0.36887792D-03  0.99472616D-04  0.11632437D-04
MO    8     MO 0.0        OCC NO =    1.0000000  ORB. ENERGY =  -10.891398
 -0.12490358D+00 -0.33681831D-01 -0.39388048D-02  0.64394977D-04 -0.28828319D-04
 -0.93701490D-05 -0.35830425D-04  0.26139253D-03  0.46608280D-03 -0.36351974D-05
  0.26519737D-04  0.47286712D-04 -0.14143900D-06  0.10318353D-05  0.18398410D-05
 -0.26721846D-01 -0.72058841D-02 -0.84266700D-03  0.67375563D-03 -0.30162658D-03
 -0.98038356D-04 -0.29439722D-02  0.37289707D-02 -0.33598421D-02 -0.29868255D-03
  0.37832506D-03 -0.34087489D-03 -0.11621167D-04  0.14719906D-04 -0.13262791D-04
  0.68222217D+01  0.18396984D+01  0.21513715D+00 -0.26896674D-02  0.12041093D-02
  0.39137499D-03  0.63721891D-02 -0.10126428D-01 -0.14913940D-01  0.64649429D-03
 -0.10273828D-02 -0.15131028D-02  0.25153931D-04 -0.39973620D-04 -0.58872109D-04
 -0.35099833D-01 -0.94651121D-02 -0.11068650D-02 -0.39159889D-03  0.17531071D-03
  0.56981699D-04 -0.11019929D-01  0.12364620D-01 -0.11827031D-01 -0.11180335D-02
  0.12544599D-02 -0.11999185D-02 -0.43500641D-04  0.48808744D-04 -0.46686636D-04
  0.11514218D+01  0.31049546D+00  0.36309810D-01 -0.52825933D-02  0.23649087D-02
  0.76867152D-03  0.37081400D-01 -0.10918863D+00  0.99580163D-01  0.37621167D-02
 -0.11077801D-01  0.10102968D-01  0.14637678D-03 -0.43101608D-03  0.39308718D-03
 -0.28816393D+03 -0.77707051D+02 -0.90871815D+01  0.60047772D-01 -0.26882164D-01
 -0.87375848D-02  0.28602380D-01  0.50279589D-01 -0.58950782D-02  0.29018717D-02
  0.51011461D-02 -0.59808871D-03  0.11290661D-03  0.19847643D-03 -0.23270557D-04
  0.39726017D+03  0.10712623D+03  0.12527505D+02 -0.16563927D+00  0.74153327D-01
  0.24102263D-01 -0.27130961D+00 -0.40592340D+00  0.15800350D-02 -0.27525880D-01
 -0.41183203D-01  0.16030341D-03 -0.10709825D-02 -0.16023644D-02  0.62371174D-05
 -0.33002656D+03 -0.88995839D+02 -0.10407310D+02  0.13450267D+00 -0.60214104D-01
 -0.19571558D-01 -0.36794705D+00 -0.54765413D+00  0.10701607D-01 -0.37330290D-01
 -0.55562581D-01  0.10857380D-02 -0.14524545D-02 -0.21618401D-02  0.42244114D-04
  0.54887609D-05  0.14801141D-05  0.17308616D-06  0.27651693D-04  0.74566303D-05
  0.87198651D-06  0.35033524D-04  0.94472348D-05  0.11047700D-05  0.21825367D-03
  0.58854874D-04  0.68825534D-05  0.29891504D-02  0.80606238D-03  0.94261817D-04
  0.28982223D-01  0.78154246D-02  0.91394431D-03  0.29108352D-01  0.78494368D-02
  0.91792174D-03 -0.27493910D-01 -0.74140820D-02 -0.86701087D-03
MO    9     MO 0.0        OCC NO =    2.0000000  ORB. ENERGY =   -1.162168
 -0.13525393D+01 -0.36472933D+00 -0.42652006D-01 -0.56540181D-01  0.25311887D-01
  0.82271932D-02  0.33020460D+00 -0.85965268D+00 -0.28446009D-01  0.33501107D-01
 -0.87216582D-01 -0.28860070D-02  0.13034679D-02 -0.33934404D-02 -0.11228934D-03
  0.16688773D+02  0.45003388D+01  0.52627644D+00  0.16683198D+00 -0.74687258D-01
 -0.24275765D-01  0.16325549D+01 -0.23790818D+01  0.24608130D+01  0.16563187D+00
 -0.24137123D+00  0.24966332D+00  0.64444199D-02 -0.93912937D-02  0.97139230D-02
  0.63856701D+02  0.17219767D+02  0.20137059D+01  0.90785113D+00 -0.40642645D+00
 -0.13210192D+00 -0.14105996D+00  0.79792287D+00  0.23361694D+01 -0.14311323D-01
  0.80953746D-01  0.23701747D+00 -0.55682787D-03  0.31497648D-02  0.92219239D-02
  0.36398231D+03  0.98152416D+02  0.11478097D+02  0.68811760D+01 -0.30805600D+01
 -0.10012825D+01  0.21770830D-01 -0.13695828D+00 -0.42046568D+00  0.22087726D-02
 -0.13895184D-01 -0.42658596D-01  0.85939307D-04 -0.54063622D-03 -0.16597681D-02
  0.17962691D+02  0.48438670D+01  0.56644914D+00  0.19431835D+00 -0.86992343D-01
 -0.28275314D-01 -0.17249683D+01  0.31774859D+01  0.95627230D-01 -0.17500774D+00
  0.32237382D+00  0.97019205D-02 -0.68092168D-02  0.12542950D-01  0.37748320D-03
  0.11789253D+00  0.31791212D-01  0.37177130D-02 -0.28851094D-01  0.12916047D-01
  0.41981388D-02 -0.20154728D+00  0.72983112D+00 -0.57599650D+00 -0.20448101D-01
  0.74045457D-01 -0.58438072D-01 -0.79559886D-03  0.28809756D-02 -0.22737203D-02
 -0.22016832D+01 -0.59371173D+00 -0.69429558D-01 -0.41523710D-01  0.18589319D-01
  0.60421381D-02  0.26519307D+00  0.28369978D+00  0.53270396D-01  0.26905323D-01
  0.28782933D-01  0.54045801D-02  0.10468378D-02  0.11198922D-02  0.21028250D-03
 -0.13753096D+01 -0.37086963D+00 -0.43370063D-01 -0.35525781D-01  0.15904168D-01
  0.51693761D-02  0.65546970D-01  0.12255014D+00 -0.13934308D-01  0.66501074D-02
  0.12433399D-01 -0.14137136D-02  0.25874373D-03  0.48376119D-03 -0.55005055D-04
  0.10315431D+00  0.27816870D-01  0.32529352D-02  0.11539823D+00  0.31118598D-01
  0.36390429D-02 -0.11557757D-01 -0.31166961D-02 -0.36446986D-03  0.26936608D+00
  0.72637984D-01  0.84943654D-02  0.25610898D+00  0.69063040D-01  0.80763076D-02
  0.10193569D+00  0.27488253D-01  0.32145064D-02 -0.61800281D-01 -0.16665231D-01
 -0.19488504D-02  0.32865027D-01  0.88624720D-02  0.10363872D-02
MO   10     MO 0.0        OCC NO =    2.0000000  ORB. ENERGY =   -0.965618
  0.12474482D+02  0.33639018D+01  0.39337982D+00  0.16443536D+00 -0.73614360D-01
 -0.23927081D-01  0.56417353D+00 -0.12830477D+01 -0.18680625D+00  0.57238566D-01
 -0.13017237D+00 -0.18952541D-01  0.22270497D-02 -0.50647731D-02 -0.73740929D-03
  0.88442846D+02  0.23849733D+02  0.27890239D+01  0.15169255D+01 -0.67909645D+00
 -0.22072822D+00  0.94465062D+00 -0.11961708D+01  0.10252638D+01  0.95840120D-01
 -0.12135826D+00  0.10401878D+00  0.37289560D-02 -0.47218182D-02  0.40471721D-02
  0.37701243D+02  0.10166617D+02  0.11888998D+01  0.48598302D+00 -0.21756470D+00
 -0.70715660D-01  0.85358606D+00 -0.16101438D+01 -0.11321203D+01  0.86601089D-01
 -0.16335811D+00 -0.11485995D+00  0.33694927D-02 -0.63559704D-02 -0.44689940D-02
 -0.83556226D+02 -0.22531989D+02 -0.26349260D+01 -0.19386291D+01  0.86788408D+00
  0.28209063D+00 -0.23976745D+00 -0.87465152D+00 -0.49093392D+01 -0.24325750D-01
 -0.88738291D-01 -0.49807993D+00 -0.94647049D-03 -0.34526448D-02 -0.19379380D-01
  0.19651678D+03  0.52993238D+02  0.61971095D+01  0.34850706D+01 -0.15601946D+01
 -0.50711352D+00 -0.54769780D+00 -0.67693616D+00 -0.16992530D+01 -0.55567023D-01
 -0.68678982D-01 -0.17239878D+00 -0.21620068D-02 -0.26721680D-02 -0.67077073D-02
  0.52237806D+02  0.14086585D+02  0.16473068D+01  0.85267707D+00 -0.38172615D+00
 -0.12407352D+00  0.26714702D+00  0.23374248D+01 -0.14734027D+01  0.27103562D-01
  0.23714484D+00 -0.14948496D+00  0.10545509D-02  0.92268796D-02 -0.58161911D-02
  0.14758513D+01  0.39798198D+00  0.46540622D-01  0.35480804D-01 -0.15884033D-01
 -0.51628315D-02  0.19211889D+01  0.26436945D+01 -0.17727148D-01  0.19491538D+00
  0.26821763D+00 -0.17985184D-02  0.75838071D-02  0.10435866D-01 -0.69977120D-04
 -0.11780317D+02 -0.31767116D+01 -0.37148952D+00 -0.35432876D+00  0.15862577D+00
  0.51558576D-01  0.11261299D+01  0.17265822D+01 -0.48195711D-01  0.11425219D+00
  0.17517144D+00 -0.48897250D-02  0.44453474D-02  0.68156058D-02 -0.19025041D-03
  0.14092917D+00  0.38003340D-01  0.44441522D-02  0.12983228D+00  0.35010923D-01
  0.40942157D-02  0.20680597D+00  0.55767857D-01  0.65215543D-02 -0.39240172D+00
 -0.10581611D+00 -0.12374252D-01 -0.11330859D+01 -0.30555101D+00 -0.35731470D-01
 -0.76941649D-01 -0.20748293D-01 -0.24263281D-02 -0.23014428D-01 -0.62061328D-02
 -0.72575197D-03  0.61865472D+00  0.16682810D+00  0.19509061D-01
MO   11     MO 0.0        OCC NO =    2.0000000  ORB. ENERGY =   -0.942413
 -0.51351872D+02 -0.13847682D+02 -0.16193691D+01 -0.77875442D+00  0.34863249D+00
  0.11331699D+00 -0.57346734D+00  0.14309736D+01  0.17321540D+00 -0.58181475D-01
  0.14518029D+00  0.17573673D-01 -0.22637366D-02  0.56487040D-02  0.68376002D-03
 -0.20385058D+03 -0.54970890D+02 -0.64283791D+01 -0.36853814D+01  0.16498697D+01
  0.53626080D+00  0.25163644D+00 -0.63535116D+00  0.35869158D+01  0.25529932D-01
 -0.64459950D-01  0.36391279D+00  0.99332090D-03 -0.25080135D-02  0.14159151D-01
 -0.17506032D+02 -0.47207231D+01 -0.55204858D+00 -0.23084646D+00  0.10334525D+00
  0.33590596D-01  0.19372813D+01 -0.26112405D+01  0.17991881D+01  0.19654804D+00
 -0.26492499D+00  0.18253771D+00  0.76473311D-02 -0.10307755D-01  0.71022142D-02
  0.31497087D+02  0.84935861D+01  0.99325325D+00  0.74914536D+00 -0.33537686D+00
 -0.10900842D+00 -0.16377315D+01  0.28611949D+01  0.11006962D+01 -0.16615702D+00
  0.29028424D+00  0.11167179D+00 -0.64648662D-02  0.11294429D-01  0.43449453D-02