  Extended Huckel Theory orbitals
GAUSSIAN             54 MOL ORBITALS    162 PRIMITIVES       22 NUCLEI
   C   1    (CENTRE  1)  -0.14565752  2.87875278  0.01111288  CHARGE =  6.0
   C   2    (CENTRE  2)  -0.03510542  0.00990640 -0.05138938  CHARGE =  6.0
   O   3    (CENTRE  3)  -2.52483853 -0.94252270  0.05543477  CHARGE =  8.0
   C   4    (CENTRE  4)  -2.63543907 -3.60737463 -0.00557102  CHARGE =  6.0
   C   5    (CENTRE  5)  -5.39758044 -4.41060894  0.08518573  CHARGE =  6.0
   C   6    (CENTRE  6)  -5.74375819 -7.28425901 -0.02809832  CHARGE =  6.0
   C   7    (CENTRE  7)  -8.51755540 -8.06121259  0.19149416  CHARGE =  6.0
   O   8    (CENTRE  8)  -4.61040972 -8.33355369 -2.24165737  CHARGE =  8.0
   H   9    (CENTRE  9)   1.75988587  3.67769570 -0.06492993  CHARGE =  1.0
   H  10    (CENTRE 10)  -1.22438396  3.59788374 -1.59873769  CHARGE =  1.0
   H  11    (CENTRE 11)  -1.06267045  3.53031644  1.74512101  CHARGE =  1.0
   H  12    (CENTRE 12)   0.91452744 -0.64833656 -1.78775127  CHARGE =  1.0
   H  13    (CENTRE 13)   1.08262490 -0.71231736  1.55494028  CHARGE =  1.0
   H  14    (CENTRE 14)  -1.73471599 -4.34773824 -1.72812120  CHARGE =  1.0
   H  15    (CENTRE 15)  -1.59781812 -4.41510412  1.61565005  CHARGE =  1.0
   H  16    (CENTRE 16)  -6.26228096 -3.67216250  1.81716817  CHARGE =  1.0
   H  17    (CENTRE 17)  -6.40703468 -3.52788392 -1.50054719  CHARGE =  1.0
   H  18    (CENTRE 18)  -4.68262967 -8.14715511  1.53186114  CHARGE =  1.0
   H  19    (CENTRE 19)  -9.63830954 -7.21696443 -1.33555677  CHARGE =  1.0
   H  20    (CENTRE 20)  -8.69721645-10.11552822  0.06496597  CHARGE =  1.0
   H  21    (CENTRE 21)  -9.33373656 -7.43579453  1.98662182  CHARGE =  1.0
   H  22    (CENTRE 22)  -5.53370409 -7.70110477 -3.67921372  CHARGE =  1.0
CENTRE ASSIGNMENTS    1  1  1  1  1  1  1  1  1  1  1  1  1  1  1  2  2  2  2  2
CENTRE ASSIGNMENTS    2  2  2  2  2  2  2  2  2  2  3  3  3  3  3  3  3  3  3  3
CENTRE ASSIGNMENTS    3  3  3  3  3  4  4  4  4  4  4  4  4  4  4  4  4  4  4  4
CENTRE ASSIGNMENTS    5  5  5  5  5  5  5  5  5  5  5  5  5  5  5  6  6  6  6  6
CENTRE ASSIGNMENTS    6  6  6  6  6  6  6  6  6  6  7  7  7  7  7  7  7  7  7  7
CENTRE ASSIGNMENTS    7  7  7  7  7  8  8  8  8  8  8  8  8  8  8  8  8  8  8  8
CENTRE ASSIGNMENTS    9  9  9 10 10 10 11 11 11 12 12 12 13 13 13 14 14 14 15 15
CENTRE ASSIGNMENTS   15 16 16 16 17 17 17 18 18 18 19 19 19 20 20 20 21 21 21 22
CENTRE ASSIGNMENTS   22 22
TYPE ASSIGNMENTS      1  1  1  1  1  1  2  3  4  2  3  4  2  3  4  1  1  1  1  1
TYPE ASSIGNMENTS      1  2  3  4  2  3  4  2  3  4  1  1  1  1  1  1  2  3  4  2
TYPE ASSIGNMENTS      3  4  2  3  4  1  1  1  1  1  1  2  3  4  2  3  4  2  3  4
TYPE ASSIGNMENTS      1  1  1  1  1  1  2  3  4  2  3  4  2  3  4  1  1  1  1  1
TYPE ASSIGNMENTS      1  2  3  4  2  3  4  2  3  4  1  1  1  1  1  1  2  3  4  2
TYPE ASSIGNMENTS      3  4  2  3  4  1  1  1  1  1  1  2  3  4  2  3  4  2  3  4
TYPE ASSIGNMENTS      1  1  1  1  1  1  1  1  1  1  1  1  1  1  1  1  1  1  1  1
TYPE ASSIGNMENTS      1  1  1  1  1  1  1  1  1  1  1  1  1  1  1  1  1  1  1  1
TYPE ASSIGNMENTS      1  1
EXPONENTS  0.7161684D+02 0.1304510D+02 0.3530512D+01 0.2941249D+01 0.6834830D+00
EXPONENTS  0.2222900D+00 0.2941249D+01 0.2941249D+01 0.2941249D+01 0.6834830D+00
EXPONENTS  0.6834830D+00 0.6834830D+00 0.2222900D+00 0.2222900D+00 0.2222900D+00
EXPONENTS  0.7161684D+02 0.1304510D+02 0.3530512D+01 0.2941249D+01 0.6834830D+00
EXPONENTS  0.2222900D+00 0.2941249D+01 0.2941249D+01 0.2941249D+01 0.6834830D+00
EXPONENTS  0.6834830D+00 0.6834830D+00 0.2222900D+00 0.2222900D+00 0.2222900D+00
EXPONENTS  0.1307093D+03 0.2380886D+02 0.6443608D+01 0.5033151D+01 0.1169596D+01
EXPONENTS  0.3803890D+00 0.5033151D+01 0.5033151D+01 0.5033151D+01 0.1169596D+01
EXPONENTS  0.1169596D+01 0.1169596D+01 0.3803890D+00 0.3803890D+00 0.3803890D+00
EXPONENTS  0.7161684D+02 0.1304510D+02 0.3530512D+01 0.2941249D+01 0.6834830D+00
EXPONENTS  0.2222900D+00 0.2941249D+01 0.2941249D+01 0.2941249D+01 0.6834830D+00
EXPONENTS  0.6834830D+00 0.6834830D+00 0.2222900D+00 0.2222900D+00 0.2222900D+00
EXPONENTS  0.7161684D+02 0.1304510D+02 0.3530512D+01 0.2941249D+01 0.6834830D+00
EXPONENTS  0.2222900D+00 0.2941249D+01 0.2941249D+01 0.2941249D+01 0.6834830D+00
EXPONENTS  0.6834830D+00 0.6834830D+00 0.2222900D+00 0.2222900D+00 0.2222900D+00
EXPONENTS  0.7161684D+02 0.1304510D+02 0.3530512D+01 0.2941249D+01 0.6834830D+00
EXPONENTS  0.2222900D+00 0.2941249D+01 0.2941249D+01 0.2941249D+01 0.6834830D+00
EXPONENTS  0.6834830D+00 0.6834830D+00 0.2222900D+00 0.2222900D+00 0.2222900D+00
EXPONENTS  0.7161684D+02 0.1304510D+02 0.3530512D+01 0.2941249D+01 0.6834830D+00
EXPONENTS  0.2222900D+00 0.2941249D+01 0.2941249D+01 0.2941249D+01 0.6834830D+00
EXPONENTS  0.6834830D+00 0.6834830D+00 0.2222900D+00 0.2222900D+00 0.2222900D+00
EXPONENTS  0.1307093D+03 0.2380886D+02 0.6443608D+01 0.5033151D+01 0.1169596D+01
EXPONENTS  0.3803890D+00 0.5033151D+01 0.5033151D+01 0.5033151D+01 0.1169596D+01
EXPONENTS  0.1169596D+01 0.1169596D+01 0.3803890D+00 0.3803890D+00 0.3803890D+00
EXPONENTS  0.3425251D+01 0.6239140D+00 0.1688550D+00 0.3425251D+01 0.6239140D+00
EXPONENTS  0.1688550D+00 0.3425251D+01 0.6239140D+00 0.1688550D+00 0.3425251D+01
EXPONENTS  0.6239140D+00 0.1688550D+00 0.3425251D+01 0.6239140D+00 0.1688550D+00
EXPONENTS  0.3425251D+01 0.6239140D+00 0.1688550D+00 0.3425251D+01 0.6239140D+00
EXPONENTS  0.1688550D+00 0.3425251D+01 0.6239140D+00 0.1688550D+00 0.3425251D+01
EXPONENTS  0.6239140D+00 0.1688550D+00 0.3425251D+01 0.6239140D+00 0.1688550D+00
EXPONENTS  0.3425251D+01 0.6239140D+00 0.1688550D+00 0.3425251D+01 0.6239140D+00
EXPONENTS  0.1688550D+00 0.3425251D+01 0.6239140D+00 0.1688550D+00 0.3425251D+01
EXPONENTS  0.6239140D+00 0.1688550D+00
MO    1     MO 0.0        OCC NO =    0.0000000  ORB. ENERGY =  -20.287738
 -0.61661074D-02 -0.16627689D-02 -0.19444674D-03 -0.11217363D-02  0.50217847D-03
  0.16322447D-03 -0.16142564D-01 -0.16758070D-02  0.79301762D-03 -0.16377536D-02
 -0.17002001D-03  0.80456081D-04 -0.63722047D-04 -0.66151730D-05  0.31304015D-05
  0.96552251D+00  0.26036536D+00  0.30447524D-01  0.13622498D-01 -0.60985150D-02
 -0.19822173D-02  0.13391208D+00  0.44272841D-01 -0.58940364D-02  0.13586131D-01
  0.44917278D-02 -0.59798302D-03  0.52861193D-03  0.17476505D-03 -0.23266444D-04
  0.13180028D+04  0.35541606D+03  0.41562910D+02 -0.18403641D+00  0.82389287D-01
  0.26779206D-01  0.20532523D+00 -0.14876807D+00 -0.14310632D-01  0.20831394D-01
 -0.15093353D-01 -0.14518937D-02  0.81051148D-03 -0.58725480D-03 -0.56490531D-04
  0.96228667D+00  0.25949278D+00  0.30345482D-01  0.13660757D-01 -0.61156427D-02
 -0.19877844D-02  0.17174946D-02 -0.14242772D+00 -0.32928452D-02  0.17424945D-03
 -0.14450090D-01 -0.33407760D-03  0.67797329D-05 -0.56222703D-03 -0.12998359D-04
 -0.73979130D-02 -0.19949408D-02 -0.23329144D-03 -0.11709445D-02  0.52420801D-03
  0.17038479D-03  0.14361243D-02  0.15649762D-01 -0.68723589D-02  0.14570286D-03
  0.15877561D-02 -0.69723931D-03  0.56690364D-05  0.61776736D-04 -0.27128329D-04
  0.45361022D+00  0.12232174D+00  0.14304491D-01  0.59734342D-02 -0.26741847D-02
 -0.86919773D-03 -0.32709757D-01  0.26709651D-01  0.52135403D-01 -0.33185881D-02
  0.27098438D-02  0.52894288D-02 -0.12912030D-03  0.10543515D-03  0.20580217D-03
 -0.26750482D-03 -0.72136060D-04 -0.84357013D-05  0.62835279D-04 -0.28130074D-04
 -0.91431964D-05  0.33091038D-03 -0.47848807D-02 -0.75428472D-02  0.33572712D-04
 -0.48545296D-03 -0.76526411D-03  0.13062539D-05 -0.18888102D-04 -0.29775051D-04
  0.63515984D+03  0.17127885D+03  0.20029617D+02 -0.89515730D-01  0.40074338D-01
  0.13025467D-01 -0.10636838D+00  0.80468568D-01 -0.11115026D-01 -0.10791667D-01
  0.81639866D-02 -0.11276816D-02 -0.41988406D-03  0.31764580D-03 -0.43876030D-04
 -0.74468216D-04 -0.20081300D-04 -0.23483293D-05 -0.76798330D-03 -0.20709645D-03
 -0.24218086D-04 -0.77489758D-03 -0.20896098D-03 -0.24436125D-04 -0.36547785D-03
 -0.98555745D-04 -0.11525217D-04 -0.38070881D-03 -0.10266297D-03 -0.12005520D-04
 -0.44411858D-03 -0.11976222D-03 -0.14005125D-04 -0.49469037D-03 -0.13339954D-03
 -0.15599888D-04 -0.54133536D-03 -0.14597796D-03 -0.17070822D-04 -0.21078312D-03
 -0.56840345D-04 -0.66469722D-05  0.45898966D-03  0.12377239D-03  0.14474079D-04
  0.60878322D-03  0.16416613D-03  0.19197767D-04 -0.26809040D-03 -0.72293982D-04
 -0.84541374D-05  0.29429917D-03  0.79361511D-04  0.92806220D-05 -0.26660230D-01
 -0.71892698D-02 -0.84072108D-03
MO    2     MO 0.0        OCC NO =    0.0000000  ORB. ENERGY =  -20.287704
 -0.29841205D-02 -0.80470584D-03 -0.94103533D-04 -0.54288522D-03  0.24303865D-03
  0.78995531D-04 -0.77720303D-02 -0.81655311D-03  0.38093644D-03 -0.78851603D-03
 -0.82843889D-04  0.38648136D-04 -0.30679741D-04 -0.32233068D-05  0.15037295D-05
  0.46530335D+00  0.12547494D+00  0.14673231D-01  0.65685536D-02 -0.29406076D-02
 -0.95579389D-03  0.64540172D-01  0.21289986D-01 -0.28186783D-02  0.65479621D-02
  0.21599884D-02 -0.28597071D-03  0.25476944D-03  0.84041265D-04 -0.11126606D-04
  0.63515561D+03  0.17127771D+03  0.20029484D+02 -0.88411516D-01  0.39580005D-01
  0.12864793D-01  0.98911799D-01 -0.69522961D-01 -0.72038529D-02  0.10035156D-01
 -0.70534935D-02 -0.73087119D-03  0.39044957D-03 -0.27443855D-03 -0.28436863D-04
  0.46806142D+00  0.12621868D+00  0.14760206D-01  0.63607443D-02 -0.28475756D-02
 -0.92555544D-03 -0.10609151D-02 -0.65911893D-01 -0.27705289D-02 -0.10763578D-03
 -0.66871308D-02 -0.28108569D-03 -0.41879149D-05 -0.26018424D-03 -0.10936539D-04
 -0.16288484D-02 -0.43923957D-03 -0.51365348D-04 -0.46728877D-03  0.20919566D-03
  0.67995449D-04 -0.98846502D-02  0.79748897D-02  0.15335043D-01 -0.10028531D-02
  0.80909725D-03  0.15558261D-02 -0.39019214D-04  0.31480520D-04  0.60534396D-04
 -0.91367505D+00 -0.24638404D+00 -0.28812527D-01 -0.12682185D-01  0.56775556D-02
  0.18453917D-02  0.58016017D-01 -0.55182848D-01 -0.10625302D+00  0.58860500D-02
 -0.55986092D-02 -0.10779964D-01  0.22901563D-03 -0.21783182D-03 -0.41942904D-03
  0.60128663D-02  0.16214455D-02  0.18961432D-03  0.31973042D-03 -0.14313679D-03
 -0.46524151D-04 -0.26698706D-02  0.93872805D-02  0.15848589D-01 -0.27087334D-03
  0.95239221D-03  0.16079282D-02 -0.10539195D-04  0.37055869D-04  0.62561596D-04
 -0.13180260D+04 -0.35542230D+03 -0.41563640D+02  0.18542283D+00 -0.83009960D-01
 -0.26980945D-01  0.21483308D+00 -0.16942809D+00  0.26579430D-01  0.21796018D-01
 -0.17189428D-01  0.26966319D-02  0.84804324D-03 -0.66880923D-03  0.10492102D-03
 -0.36990107D-04 -0.99748522D-05 -0.11664701D-05 -0.37030724D-03 -0.99858052D-04
 -0.11677510D-04 -0.37374120D-03 -0.10078406D-03 -0.11785799D-04 -0.16241221D-03
 -0.43796515D-04 -0.51216124D-05 -0.18456759D-03 -0.49770996D-04 -0.58202747D-05
 -0.62824869D-03 -0.16941524D-03 -0.19811604D-04 -0.60851406D-04 -0.16409355D-04
 -0.19189279D-05 -0.73507043D-03 -0.19822108D-03 -0.23180190D-04 -0.15685622D-02
 -0.42298274D-03 -0.49464064D-04 -0.18062143D-02 -0.48706862D-03 -0.56958338D-04
 -0.12159402D-02 -0.32789372D-03 -0.38344251D-04  0.59845013D-03  0.16137968D-03
  0.18871916D-04 -0.56343761D-03 -0.15193811D-03 -0.17767809D-04  0.55224234D-01
  0.14891916D-01  0.17414770D-02
MO    3     MO 0.0        OCC NO =    0.6666670  ORB. ENERGY =  -10.931665
  0.10553638D+02  0.28459220D+01  0.33280647D+00 -0.16773440D-02  0.75091271D-03
  0.24407125D-03 -0.77490006D-03  0.89941840D-02  0.22605402D-03 -0.78617953D-04
  0.91251036D-03  0.22934447D-04 -0.30588832D-05  0.35504138D-04  0.89233812D-06
  0.18160697D+02  0.48972616D+01  0.57269327D+00 -0.23176390D-02  0.10375597D-02
  0.33724093D-03  0.12474558D-01  0.64589279D-02 -0.47585816D-03  0.12656138D-02
  0.65529443D-03 -0.48278477D-04  0.49242757D-04  0.25496328D-04 -0.18784288D-05
 -0.93321312D+00 -0.25165267D+00 -0.29428657D-01  0.44296713D-02 -0.19830721D-02
 -0.64456311D-03 -0.31708576D-01  0.16891370D+00  0.52537416D-02 -0.32170125D-02
  0.17137240D-01  0.53302149D-03 -0.12516808D-03  0.66677871D-03  0.20738892D-04
  0.22387542D+03  0.60370839D+02  0.70598583D+01 -0.38198328D-01  0.17100613D-01
  0.55582599D-02  0.13415110D+00  0.26219972D-02 -0.63854086D-02  0.13610381D-01
  0.26601631D-03 -0.64783549D-03  0.52955547D-03  0.10350216D-04 -0.25206114D-04
  0.35832550D+03  0.96627006D+02  0.11299710D+02 -0.69821858D-01  0.31257823D-01
  0.10159817D-01 -0.72435383D-01  0.11133718D+00  0.89094619D-02 -0.73489755D-02
  0.11295781D-01  0.90391483D-03 -0.28593543D-03  0.43949852D-03  0.35169701D-04
  0.35037367D+03  0.94482695D+02  0.11048951D+02 -0.61171828D-01  0.27385381D-01
  0.89011467D-02  0.57769561D-01 -0.10341141D+00  0.20858819D-01  0.58610456D-02
 -0.10491667D-01  0.21162441D-02  0.22804275D-03 -0.40821192D-03  0.82339254D-04
  0.22160224D+03  0.59757848D+02  0.69881742D+01 -0.42687339D-01  0.19110252D-01
  0.62114585D-02 -0.13237138D+00 -0.25343799D-01  0.10766795D-01 -0.13429818D-01
 -0.25712704D-02  0.10923517D-02 -0.52253008D-03 -0.10004351D-03  0.42501440D-04
 -0.11834211D+01 -0.31912442D+00 -0.37318908D-01  0.97574198D-02 -0.43681947D-02
 -0.14198058D-02  0.92442509D-01 -0.59351496D-01 -0.25747560D+00  0.93788099D-02
 -0.60215415D-02 -0.26122341D-01  0.36491236D-03 -0.23428718D-03 -0.10163726D-02
 -0.14719543D-02 -0.39693117D-03 -0.46417565D-04 -0.14546548D-02 -0.39226614D-03
 -0.45872031D-04 -0.14579349D-02 -0.39315068D-03 -0.45975470D-04 -0.18716623D-02
 -0.50471751D-03 -0.59022218D-04 -0.19435827D-02 -0.52411177D-03 -0.61290204D-04
 -0.29946811D-01 -0.80755379D-02 -0.94436224D-03 -0.28300108D-01 -0.76314836D-02
 -0.89243405D-03 -0.46568510D-01 -0.12557790D-01 -0.14685218D-02 -0.46255698D-01
 -0.12473437D-01 -0.14586573D-02 -0.45885445D-01 -0.12373593D-01 -0.14469815D-02
 -0.28584320D-01 -0.77081251D-02 -0.90139659D-03 -0.29293904D-01 -0.78994734D-02
 -0.92377307D-03 -0.28675200D-01 -0.77326318D-02 -0.90426243D-03 -0.45008933D-02
 -0.12137230D-02 -0.14193410D-03
MO    4     MO 0.0        OCC NO =    0.6666670  ORB. ENERGY =  -10.924552
  0.42096023D+03  0.11351725D+03  0.13274881D+02 -0.90028786D-01  0.40304053D-01
  0.13100139D-01 -0.66629250D-02  0.15084147D+00  0.33659324D-02 -0.67599108D-03
  0.15303712D-01  0.34149271D-03 -0.26301598D-04  0.59543994D-03  0.13286867D-04
  0.41278132D+03  0.11131171D+03  0.13016961D+02 -0.79416457D-01  0.35553129D-01
  0.11555933D-01  0.44905693D-01 -0.13616660D+00 -0.49804888D-02  0.45559342D-02
 -0.13814865D-01 -0.50529850D-03  0.17726321D-03 -0.53751157D-03 -0.19660256D-04
 -0.16494097D+01 -0.44478410D+00 -0.52013749D-01  0.94497868D-02 -0.42304738D-02
 -0.13750420D-02 -0.30767826D+00 -0.62575424D-01  0.14300454D-01 -0.31215681D-01
 -0.63486270D-02  0.14508611D-02 -0.12145451D-02 -0.24701348D-03  0.56450354D-04
  0.32039867D+02  0.86399555D+01  0.10103696D+01 -0.49976596D-02  0.22373503D-02
  0.72721222D-03 -0.83875294D-02 -0.24380198D-01 -0.27200219D-03 -0.85096186D-03
 -0.24735077D-02 -0.27596146D-04 -0.33109396D-04 -0.96239738D-04 -0.10737165D-05
 -0.20027938D+01 -0.54007870D+00 -0.63157629D-01  0.90256278D-03 -0.40405896D-03
 -0.13133241D-03 -0.15175218D-01 -0.15939448D-01 -0.65995965D-04 -0.15396109D-02
 -0.16171463D-02 -0.66956604D-05 -0.59903494D-04 -0.62920255D-04 -0.26051611D-06
 -0.32120951D+02 -0.86618208D+01 -0.10129266D+01  0.63391008D-02 -0.28378862D-02
 -0.92240609D-03 -0.94211238D-02 -0.44528243D-02 -0.20210146D-02 -0.95582580D-03
 -0.45176397D-03 -0.20504325D-03 -0.37189464D-04 -0.17577324D-04 -0.79778644D-05
 -0.32034005D+02 -0.86383747D+01 -0.10101848D+01  0.68184058D-02 -0.30524613D-02
 -0.99215003D-03  0.11163224D-01  0.28261555D-02 -0.89997064D-03  0.11325717D-02
  0.28672931D-03 -0.91307064D-04  0.44066328D-04  0.11156122D-04 -0.35525938D-05
  0.10844956D+00  0.29244790D-01  0.34199315D-02 -0.77217378D-03  0.34568621D-03
  0.11235929D-03 -0.47487592D-02  0.10865487D-01  0.21737731D-01 -0.48178820D-03
  0.11023644D-02  0.22054144D-02 -0.18745499D-04  0.42890987D-04  0.85808647D-04
 -0.52525593D-01 -0.14164193D-01 -0.16563763D-02 -0.53101569D-01 -0.14319513D-01
 -0.16745395D-02 -0.53103780D-01 -0.14320109D-01 -0.16746092D-02 -0.51045309D-01
 -0.13765016D-01 -0.16096960D-02 -0.50994744D-01 -0.13751381D-01 -0.16081015D-02
 -0.29975272D-02 -0.80832128D-03 -0.94525975D-04 -0.30378590D-02 -0.81919726D-03
 -0.95797825D-04  0.76191662D-04  0.20546049D-04  0.24026775D-05  0.71396969D-04
  0.19253100D-04  0.22514786D-05  0.40549931D-02  0.10934804D-02  0.12787279D-03
  0.39713677D-02  0.10709297D-02  0.12523570D-03  0.39954451D-02  0.10774225D-02
  0.12599497D-03  0.40187441D-02  0.10837054D-02  0.12672970D-03  0.55404702D-03
  0.14940582D-03  0.17471680D-04
MO    5     MO 0.0        OCC NO =    0.6666670  ORB. ENERGY =  -10.919757
  0.45321797D+02  0.12221596D+02  0.14292122D+01 -0.10581506D-01  0.47371246D-02
  0.15397208D-02  0.10543101D-03  0.63855064D-02  0.12631927D-03  0.10696567D-04
  0.64784540D-03  0.12815797D-04  0.41618419D-06  0.25206500D-04  0.49863964D-06
  0.24524240D+02  0.66132715D+01  0.77336609D+00 -0.58933310D-02  0.26383242D-02
  0.85754188D-03 -0.12392550D-01 -0.24042831D-01  0.12684685D-03 -0.12572936D-02
 -0.24392799D-02  0.12869324D-04 -0.48919035D-04 -0.94907997D-04  0.50072226D-06
  0.11738628D+01  0.31654688D+00  0.37017487D-01 -0.70250878D-02  0.31449863D-02
  0.10222231D-02 -0.17648608D-01 -0.27126907D+00 -0.58122846D-02 -0.17905500D-02
 -0.27521766D-01 -0.58968880D-03 -0.69667031D-04 -0.10708216D-02 -0.22943714D-04
 -0.34688251D+03 -0.93541258D+02 -0.10938858D+02  0.71558155D-01 -0.32035128D-01
 -0.10412467D-01 -0.66918481D-01  0.50983146D-02  0.31144348D-02 -0.67892549D-02
  0.51725258D-03  0.31597686D-03 -0.26415770D-03  0.20125368D-04  0.12294092D-04
 -0.22202151D+03 -0.59870909D+02 -0.70013958D+01  0.50763931D-01 -0.22725977D-01
 -0.73866878D-02  0.12048571D+00  0.12001011D+00 -0.35641151D-03  0.12223950D-01
  0.12175698D-01 -0.36159944D-04  0.47561194D-03  0.47373453D-03 -0.14069184D-05
  0.21701996D+03  0.58522177D+02  0.68436730D+01 -0.45481024D-01  0.20360927D-01
  0.66179691D-02  0.11793577D+00  0.13047167D+00  0.13661847D-01  0.11965244D-01
  0.13237083D-01  0.13860710D-02  0.46554615D-03  0.51503109D-03  0.53929531D-04
  0.36213786D+03  0.97655056D+02  0.11419932D+02 -0.81564224D-01  0.36514641D-01
  0.11868456D-01 -0.69424729D-01 -0.26436605D-01  0.53567493D-02 -0.70435277D-02
 -0.26821417D-02  0.54347223D-03 -0.27405100D-03 -0.10435731D-03  0.21145528D-04
 -0.73234163D+00 -0.19748515D+00 -0.23094222D-01  0.46069958D-02 -0.20624566D-02
 -0.67036567D-03 -0.32474003D-02 -0.11499399D+00 -0.13754667D+00 -0.32946693D-03
 -0.11666784D-01 -0.13954880D-01 -0.12818957D-04 -0.45393325D-03 -0.54295888D-03
 -0.53302269D-02 -0.14373634D-02 -0.16808685D-03 -0.54456071D-02 -0.14684771D-02
 -0.17172532D-03 -0.54430410D-02 -0.14677852D-02 -0.17164440D-03 -0.38585684D-02
 -0.10405120D-02 -0.12167861D-03 -0.38400301D-02 -0.10355129D-02 -0.12109401D-03
  0.42043105D-01  0.11337457D-01  0.13258147D-02  0.42040672D-01  0.11336801D-01
  0.13257380D-02  0.27746759D-01  0.74822660D-02  0.87498438D-03  0.27415131D-01
  0.73928383D-02  0.86452660D-03 -0.27370655D-01 -0.73808449D-02 -0.86312409D-03
 -0.43835731D-01 -0.11820862D-01 -0.13823445D-02 -0.43998059D-01 -0.11864635D-01
 -0.13874635D-02 -0.44417005D-01 -0.11977610D-01 -0.14006748D-02 -0.42855084D-02
 -0.11556418D-02 -0.13514202D-03
MO    6     MO 0.0        OCC NO =    2.0000000  ORB. ENERGY =  -10.905973
 -0.51911807D+02 -0.13998676D+02 -0.16370265D+01  0.13594279D-01 -0.60858819D-02
 -0.19781112D-02 -0.88090049D-03  0.13931779D-01  0.31554319D-03 -0.89372290D-04
  0.14134570D-02  0.32013624D-04 -0.34773152D-05  0.54995072D-04  0.12455926D-05
  0.33712451D+02  0.90909889D+01  0.10631142D+01 -0.76619924D-02  0.34301179D-02
  0.11149008D-02  0.16701122D-01  0.22051481D-01 -0.39601240D-03  0.16944224D-02
  0.22372464D-02 -0.40177677D-04  0.65926930D-04  0.87047234D-04 -0.15632412D-05
 -0.12861775D+01 -0.34683395D+00 -0.40559305D-01  0.10107148D-01 -0.45247609D-02
 -0.14706949D-02  0.38231517D-01  0.25533040D+00  0.51976719D-02  0.38788013D-02
  0.25904698D-01  0.52733290D-03  0.15091707D-03  0.10079045D-02  0.20517560D-04
  0.35664317D+03  0.96173344D+02  0.11246658D+02 -0.87269296D-01  0.39068685D-01
  0.12698604D-01 -0.90278464D-01 -0.44078270D-01  0.23325271D-02 -0.91592560D-02
 -0.44719874D-02  0.23664794D-03 -0.35637019D-03 -0.17399699D-03  0.92075460D-05
 -0.21702493D+03 -0.58523519D+02 -0.68438299D+01  0.57677173D-01 -0.25820895D-01
 -0.83926375D-02 -0.15040579D+00 -0.11105118D+00  0.24854483D-02 -0.15259510D-01
 -0.11266765D-01  0.25216266D-03 -0.59372012D-03 -0.43836956D-03  0.98111957D-05
 -0.22598643D+03 -0.60940100D+02 -0.71264285D+01  0.55659425D-01 -0.24917590D-01
 -0.80990339D-02  0.15104768D+00  0.96839436D-01 -0.26244334D-01  0.15324634D-01
  0.98249034D-02 -0.26626347D-02  0.59625396D-03  0.38226933D-03 -0.10359833D-03
  0.34787317D+03  0.93808402D+02  0.10970098D+02 -0.90906342D-01  0.40696917D-01
  0.13227832D-01  0.84842902D-01  0.11192671D-01 -0.70889340D-02  0.86077879D-02
  0.11355592D-02 -0.71921207D-03  0.33491355D-03  0.44182567D-04 -0.27983249D-04
  0.74915095D+00  0.20201799D+00  0.23624300D-01 -0.40119697D-02  0.17960757D-02
  0.58378320D-03 -0.98968518D-01  0.13738810D-01  0.13418081D+00 -0.10040910D-01
  0.13938792D-02  0.13613394D-01 -0.39067347D-03  0.54233294D-04  0.52967231D-03
  0.56057792D-02  0.15116696D-02  0.17677630D-03  0.56631576D-02  0.15271424D-02
  0.17858570D-03  0.56625038D-02  0.15269661D-02  0.17856509D-03 -0.25151469D-02
 -0.67824132D-03 -0.79314283D-04 -0.25233342D-02 -0.68044913D-03 -0.79572467D-04
 -0.39850482D-01 -0.10746189D-01 -0.12566711D-02 -0.39941940D-01 -0.10770851D-01
 -0.12595552D-02  0.24761206D-01  0.66771737D-02  0.78083600D-03  0.24612397D-01
  0.66370454D-02  0.77614336D-03  0.26831917D-01  0.72355672D-02  0.84613515D-03
 -0.38710045D-01 -0.10438655D-01 -0.12207078D-02 -0.39363341D-01 -0.10614825D-01
 -0.12413093D-02 -0.38974821D-01 -0.10510055D-01 -0.12290574D-02  0.52885826D-02
  0.14261335D-02  0.16677361D-03
MO    7     MO 0.0        OCC NO =    2.0000000  ORB. ENERGY =  -10.901818
 -0.40991345D+03 -0.11053835D+03 -0.12926524D+02  0.11172963D+00 -0.50019079D-01
 -0.16257841D-01 -0.67348611D-02  0.15908699D+00  0.34761699D-02 -0.68328939D-03
  0.16140266D-01  0.35267691D-03 -0.26585562D-04  0.62798876D-03  0.13722025D-04
  0.42143764D+03  0.11364599D+03  0.13289936D+02 -0.10716965D+00  0.47977668D-01
  0.15594315D-01  0.21564109D-01  0.17002096D+00  0.23269744D-02  0.21877997D-02
  0.17249579D-01  0.23608459D-03  0.85123352D-04  0.67115011D-03  0.91856270D-05
 -0.12495168D+01 -0.33694795D+00 -0.39403221D-01  0.93786314D-02 -0.41986190D-02
 -0.13646881D-02 -0.26888193D+00 -0.21798166D+00  0.89230648D-02 -0.27279577D-01
 -0.22115460D-01  0.90529486D-03 -0.10613985D-02 -0.86047213D-03  0.35223369D-04
 -0.37707346D+02 -0.10168263D+02 -0.11890922D+01  0.10138672D-01 -0.45388770D-02
 -0.14752839D-02  0.82172111D-02 -0.14937527D-01 -0.80319418D-03  0.83368211D-03
 -0.15154958D-02 -0.81488551D-04  0.32437072D-04 -0.58965218D-04 -0.31705730D-05
 -0.12986172D+01 -0.35018855D+00 -0.40951585D-01  0.15351392D-03 -0.68725054D-04
 -0.22337896D-04  0.15778234D-01  0.17554023D-01 -0.75936721D-04  0.16007902D-02
  0.17809540D-02 -0.77042059D-05  0.62283871D-04  0.69293719D-04 -0.29975680D-06
  0.40094121D+02  0.10811887D+02  0.12643586D+01 -0.10236310D-01  0.45825874D-02
  0.14894912D-02 -0.16398072D-01 -0.15651306D-02  0.44770059D-02 -0.16636763D-02
 -0.15879126D-03  0.45421733D-03 -0.64730655D-04 -0.61782827D-05  0.17672780D-04
 -0.38140267D+02 -0.10285006D+02 -0.12027443D+01  0.10358282D-01 -0.46371916D-02
 -0.15072393D-02 -0.13999184D-01 -0.35535076D-02  0.11028762D-02 -0.14202957D-02
 -0.36052325D-03  0.11189297D-03 -0.55261153D-04 -0.14027312D-04  0.43535543D-05
 -0.13366368D+00 -0.36044095D-01 -0.42150528D-02  0.64079472D-03 -0.28687052D-03
 -0.93242277D-04  0.12753298D-01 -0.82620475D-02 -0.22877756D-01  0.12938934D-02
 -0.83823096D-03 -0.23210764D-02  0.50343030D-04 -0.32614035D-04 -0.90308842D-04
  0.44445671D-01  0.11985340D-01  0.14015788D-02  0.43981146D-01  0.11860075D-01
  0.13869301D-02  0.43993889D-01  0.11863511D-01  0.13873320D-02 -0.45691097D-01
 -0.12321185D-01 -0.14408528D-02 -0.45697030D-01 -0.12322785D-01 -0.14410399D-02
  0.56273527D-02  0.15174871D-02  0.17745661D-03  0.56632929D-02  0.15271789D-02
  0.17858997D-03 -0.89551425D-05 -0.24148679D-05 -0.28239730D-06 -0.36138819D-04
 -0.97452915D-05 -0.11396251D-05 -0.46962729D-02 -0.12664096D-02 -0.14809533D-03
  0.40872401D-02  0.11021762D-02  0.12888969D-03  0.41817074D-02  0.11276505D-02
  0.13186869D-03  0.41039293D-02  0.11066767D-02  0.12941598D-03 -0.94675663D-03
 -0.25530495D-03 -0.29855641D-04
MO    8     MO 0.0        OCC NO =    0.6666670  ORB. ENERGY =  -10.895705
 -0.13172221D+02 -0.35520562D+01 -0.41538289D+00  0.39455042D-02 -0.17663218D-02
 -0.57411251D-03 -0.14270908D-03  0.80976344D-02  0.16268673D-03 -0.14478635D-04
  0.82155038D-03  0.16505480D-04 -0.56333768D-06  0.31965049D-04  0.64219856D-06
  0.21620818D+02  0.58303273D+01  0.68180739D+00 -0.60330926D-02  0.27008926D-02
  0.87787867D-03 -0.81744423D-02  0.81441437D-02  0.57964757D-03 -0.82934298D-03
  0.82626901D-03  0.58808494D-04 -0.32268245D-04  0.32148642D-04  0.22881328D-05
  0.64361045D+00  0.17355766D+00  0.20296105D-01 -0.45304067D-02  0.20281692D-02
  0.65922115D-03 -0.89630609D-01 -0.16639513D+00 -0.36016438D-03 -0.90935269D-02
 -0.16881718D-01 -0.36540691D-04 -0.35381252D-03 -0.65683679D-03 -0.14217316D-05
 -0.22459784D+03 -0.60565649D+02 -0.70826396D+01  0.60165700D-01 -0.26934958D-01
 -0.87547445D-02  0.11862358D+00  0.65161114D-01 -0.23253452D-02  0.12035027D-01
  0.66109601D-02 -0.23591930D-03  0.46826127D-03  0.25722058D-03 -0.91791958D-05
  0.35415750D+03  0.95503052D+02  0.11168273D+02 -0.10195537D+00  0.45643339D-01
  0.14835582D-01  0.59993264D-01 -0.97794198D-01 -0.61009123D-02  0.60866528D-02
 -0.99217693D-02 -0.61897174D-03  0.23682072D-03 -0.38603821D-03 -0.24083078D-04
 -0.35623942D+03 -0.96064467D+02 -0.11233926D+02  0.96263232D-01 -0.43095087D-01
 -0.14007316D-01  0.63542869D-01 -0.10884216D+00 -0.36257723D-01  0.64467801D-02
 -0.11042647D-01 -0.36785491D-02  0.25083263D-03 -0.42964956D-03 -0.14312573D-03
  0.21574463D+03  0.58178269D+02  0.68034558D+01 -0.61020816D-01  0.27317776D-01
  0.88791729D-02  0.11308299D+00  0.46851854D-01 -0.80275072D-02  0.11472903D-01
  0.47533831D-02 -0.81443558D-03  0.44639004D-03  0.18494559D-03 -0.31688225D-04
  0.12055734D+01  0.32509806D+00  0.38017476D-01 -0.51541796D-02  0.23074195D-02
  0.74998659D-03 -0.97362082D-01  0.10444990D+00  0.19826088D+00 -0.98779280D-02
  0.10597027D-01  0.20114675D-01 -0.38433214D-03  0.41231098D-03  0.78262528D-03
  0.14746342D-02  0.39765385D-03  0.46502076D-04  0.13910897D-02  0.37512501D-03
  0.43867529D-04  0.13930616D-02  0.37565677D-03  0.43929713D-04 -0.31575643D-02
 -0.85147732D-03 -0.99572690D-04 -0.31088715D-02 -0.83834669D-03 -0.98037180D-04
  0.23852590D-01  0.64321540D-02  0.75218313D-03  0.22622471D-01  0.61004366D-02
  0.71339173D-03 -0.36773701D-01 -0.99164956D-02 -0.11596459D-02 -0.36352658D-01
 -0.98029560D-02 -0.11463684D-02  0.38541532D-01  0.10393214D-01  0.12153938D-02
 -0.21334616D-01 -0.57531503D-02 -0.67277969D-03 -0.22010260D-01 -0.59353462D-02
 -0.69408588D-03 -0.21412985D-01 -0.57742834D-02 -0.67525102D-03  0.76177744D-02
  0.20542296D-02  0.24022386D-03
MO    9     MO 0.0        OCC NO =    2.0000000  ORB. ENERGY =   -1.170882
 -0.11289667D+01 -0.30444015D+00 -0.35601697D-01  0.23334914D-01 -0.10446565D-01
 -0.33954763D-02 -0.10310586D+00  0.12266270D+01  0.29462184D-01 -0.10460667D-01
  0.12444818D+00  0.29891037D-02 -0.40700576D-03  0.48420549D-02  0.11630065D-03
 -0.34857872D+02 -0.93998663D+01 -0.10992347D+01 -0.54311500D+00  0.24314152D+00
  0.79028967D-01  0.12195512D+01  0.84955933D+00 -0.44966877D-01  0.12373030D+00
  0.86192554D-01 -0.45621417D-02  0.48141237D-02  0.33535974D-02 -0.17750473D-03
 -0.30775984D+03 -0.82991317D+02 -0.97051344D+01 -0.58323595D+01  0.26110265D+01
  0.84866878D+00  0.35871682D+00 -0.36882700D+00 -0.13511895D-01  0.36393829D-01
 -0.37419564D-01 -0.13708574D-02  0.14160174D-02 -0.14559269D-02 -0.53337557D-04
 -0.35672806D+02 -0.96196235D+01 -0.11249335D+01 -0.56469001D+00  0.25280021D+00
  0.82168359D-01 -0.62287390D+00 -0.14376644D+01 -0.49997759D-01 -0.63194048D-01
 -0.14585911D+00 -0.50725528D-02 -0.24587668D-02 -0.56751157D-02 -0.19736391D-03
 -0.11869740D+01 -0.32008256D+00 -0.37430945D-01 -0.14061132D-02  0.62948823D-03
  0.20460432D-03 -0.13483597D+01 -0.11069836D+01  0.55945076D-01 -0.13679865D+00
 -0.11230969D+00  0.56759415D-02 -0.53225896D-02 -0.43697683D-02  0.22084068D-03
  0.23432541D+02  0.63188812D+01  0.73893963D+00  0.38101155D+00 -0.17057111D+00
 -0.55441203D-01  0.62515124D+00 -0.99109396D+00 -0.94215213D+00  0.63425096D-01
 -0.10055204D+00 -0.95586613D-01  0.24677565D-02 -0.39122990D-02 -0.37191033D-02
  0.17335959D+01  0.46748606D+00  0.54668535D-01  0.30117839D-02 -0.13483143D-02
 -0.43824635D-03  0.66048736D+00  0.21697629D+00 -0.19694150D-01  0.67010144D-01
  0.22013460D-01 -0.19980818D-02  0.26072443D-02  0.85650416D-03 -0.77741773D-04
  0.19777473D+03  0.53332446D+02  0.62367797D+01  0.36565015D+01 -0.16369400D+01
 -0.53205889D+00 -0.38849151D+00  0.29621729D+00 -0.19974488D+01 -0.39414638D-01
  0.30052902D-01 -0.20265235D+00 -0.15335516D-02  0.11693035D-02 -0.78848330D-02
 -0.15849500D+00 -0.42740191D-01 -0.49980848D-02 -0.10305211D+00 -0.27789311D-01
 -0.32497124D-02 -0.10270823D+00 -0.27696578D-01 -0.32388682D-02 -0.11357557D+00
 -0.30627094D-01 -0.35815659D-02 -0.11373868D+00 -0.30671080D-01 -0.35867097D-02
 -0.12517176D+00 -0.33754156D-01 -0.39472480D-02 -0.90594235D-01 -0.24429886D-01
 -0.28568577D-02 -0.18212261D-02 -0.49111674D-03 -0.57431730D-04 -0.21977631D-01
 -0.59265475D-02 -0.69305695D-03 -0.80882465D-03 -0.21810984D-03 -0.25506004D-04
  0.64714406D-01  0.17451062D-01  0.20407462D-02  0.54458699D-01  0.14685480D-01